 opt alanine b3lyp
GAUSSIAN             24 MOL ORBITALS    111 PRIMITIVES       13 NUCLEI
  O    1    (CENTRE  1)   3.24882799  1.47304175 -1.03771914  CHARGE =  8.0
  O    2    (CENTRE  2)   2.17885160 -2.03762593  1.47200548  CHARGE =  8.0
  N    3    (CENTRE  3)  -2.64212003 -2.14865815 -1.06059627  CHARGE =  7.0
  C    4    (CENTRE  4)  -1.26702644  0.36359178 -0.79300368  CHARGE =  6.0
  C    5    (CENTRE  5)  -2.48328461  2.25067267  1.14862036  CHARGE =  6.0
  C    6    (CENTRE  6)   1.51586167 -0.27785903  0.03644915  CHARGE =  6.0
  H    7    (CENTRE  7)  -1.20517917  1.28298947 -2.67516681  CHARGE =  1.0
  H    8    (CENTRE  8)  -1.39080291  4.02005315  1.22294575  CHARGE =  1.0
  H    9    (CENTRE  9)  -4.43185215  2.70479652  0.57347646  CHARGE =  1.0
  H   10    (CENTRE 10)  -2.52864528  1.41561965  3.05449015  CHARGE =  1.0
  H   11    (CENTRE 11)  -4.59202035 -1.68088883 -0.96067630  CHARGE =  1.0
  H   12    (CENTRE 12)  -2.31930463 -3.05592658  0.70319947  CHARGE =  1.0
  H   13    (CENTRE 13)   4.94790424  0.85220466 -0.32078051  CHARGE =  1.0
CENTRE ASSIGNMENTS    1  1  1  1  1  1  1  1  1  1  1  1  1  1  1  2  2  2  2  2
CENTRE ASSIGNMENTS    2  2  2  2  2  2  2  2  2  2  3  3  3  3  3  3  3  3  3  3
CENTRE ASSIGNMENTS    3  3  3  3  3  4  4  4  4  4  4  4  4  4  4  4  4  4  4  4
CENTRE ASSIGNMENTS    5  5  5  5  5  5  5  5  5  5  5  5  5  5  5  6  6  6  6  6
CENTRE ASSIGNMENTS    6  6  6  6  6  6  6  6  6  6  7  7  7  8  8  8  9  9  9 10
CENTRE ASSIGNMENTS   10 10 11 11 11 12 12 12 13 13 13
TYPE ASSIGNMENTS      1  1  1  1  1  1  2  2  2  3  3  3  4  4  4  1  1  1  1  1
TYPE ASSIGNMENTS      1  2  2  2  3  3  3  4  4  4  1  1  1  1  1  1  2  2  2  3
TYPE ASSIGNMENTS      3  3  4  4  4  1  1  1  1  1  1  2  2  2  3  3  3  4  4  4
TYPE ASSIGNMENTS      1  1  1  1  1  1  2  2  2  3  3  3  4  4  4  1  1  1  1  1
TYPE ASSIGNMENTS      1  2  2  2  3  3  3  4  4  4  1  1  1  1  1  1  1  1  1  1
TYPE ASSIGNMENTS      1  1  1  1  1  1  1  1  1  1  1
EXPONENTS  0.1307093D+03 0.2380887D+02 0.6443608D+01 0.5033151D+01 0.1169596D+01
EXPONENTS  0.3803890D+00 0.5033151D+01 0.1169596D+01 0.3803890D+00 0.5033151D+01
EXPONENTS  0.1169596D+01 0.3803890D+00 0.5033151D+01 0.1169596D+01 0.3803890D+00
EXPONENTS  0.1307093D+03 0.2380887D+02 0.6443608D+01 0.5033151D+01 0.1169596D+01
EXPONENTS  0.3803890D+00 0.5033151D+01 0.1169596D+01 0.3803890D+00 0.5033151D+01
EXPONENTS  0.1169596D+01 0.3803890D+00 0.5033151D+01 0.1169596D+01 0.3803890D+00
EXPONENTS  0.9910617D+02 0.1805231D+02 0.4885660D+01 0.3780456D+01 0.8784966D+00
EXPONENTS  0.2857144D+00 0.3780456D+01 0.8784966D+00 0.2857144D+00 0.3780456D+01
EXPONENTS  0.8784966D+00 0.2857144D+00 0.3780456D+01 0.8784966D+00 0.2857144D+00
EXPONENTS  0.7161684D+02 0.1304510D+02 0.3530512D+01 0.2941249D+01 0.6834831D+00
EXPONENTS  0.2222899D+00 0.2941249D+01 0.6834831D+00 0.2222899D+00 0.2941249D+01
EXPONENTS  0.6834831D+00 0.2222899D+00 0.2941249D+01 0.6834831D+00 0.2222899D+00
EXPONENTS  0.7161684D+02 0.1304510D+02 0.3530512D+01 0.2941249D+01 0.6834831D+00
EXPONENTS  0.2222899D+00 0.2941249D+01 0.6834831D+00 0.2222899D+00 0.2941249D+01
EXPONENTS  0.6834831D+00 0.2222899D+00 0.2941249D+01 0.6834831D+00 0.2222899D+00
EXPONENTS  0.7161684D+02 0.1304510D+02 0.3530512D+01 0.2941249D+01 0.6834831D+00
EXPONENTS  0.2222899D+00 0.2941249D+01 0.6834831D+00 0.2222899D+00 0.2941249D+01
EXPONENTS  0.6834831D+00 0.2222899D+00 0.2941249D+01 0.6834831D+00 0.2222899D+00
EXPONENTS  0.3425251D+01 0.6239137D+00 0.1688554D+00 0.3425251D+01 0.6239137D+00
EXPONENTS  0.1688554D+00 0.3425251D+01 0.6239137D+00 0.1688554D+00 0.3425251D+01
EXPONENTS  0.6239137D+00 0.1688554D+00 0.3425251D+01 0.6239137D+00 0.1688554D+00
EXPONENTS  0.3425251D+01 0.6239137D+00 0.1688554D+00 0.3425251D+01 0.6239137D+00
EXPONENTS  0.1688554D+00
MO    1     MO 0.0        OCC NO =    2.0000000  ORB. ENERGY =  -18.934972
  0.42244436D+01  0.40856979D+01  0.12733336D+01 -0.68540609D-02  0.91678601D-02
  0.69191208D-02  0.95939283D-03  0.60329196D-03  0.95571582D-04 -0.55013163D-02
 -0.34593753D-02 -0.54802317D-03  0.43206906D-02  0.27169662D-02  0.43041310D-03
  0.39864412D-02  0.38555124D-02  0.12015948D-02 -0.49344854D-04  0.66002728D-04
  0.49813244D-04  0.10363563D-02  0.65168863D-03  0.10323843D-03  0.42700360D-03
  0.26851132D-03  0.42536705D-04 -0.17051362D-03 -0.10722354D-03 -0.16986010D-04
  0.90834257D-05  0.87850939D-05  0.27379300D-05  0.12108213D-05 -0.16195713D-05
 -0.12223146D-05 -0.76647869D-04 -0.48198237D-04 -0.76354105D-05 -0.53672727D-05
 -0.33750851D-05 -0.53467019D-06 -0.66496508D-05 -0.41814789D-05 -0.66241651D-06
 -0.78736435D-04 -0.76150452D-04 -0.23732770D-04 -0.61043654D-04  0.81650819D-04
  0.61623091D-04  0.25327186D-03  0.15926414D-03  0.25230116D-04  0.13602996D-03
  0.85539292D-04  0.13550861D-04 -0.15316215D-03 -0.96312468D-04 -0.15257513D-04
 -0.28967713D-04 -0.28016311D-04 -0.87314605D-05 -0.91996513D-05  0.12305277D-04
  0.92869760D-05  0.43984296D-04  0.27658506D-04  0.43815720D-05  0.18426365D-05
  0.11586993D-05  0.18355743D-06  0.10468232D-04  0.65827052D-05  0.10428111D-05
  0.16019235D-02  0.15493107D-02  0.48285247D-03  0.76996770D-03 -0.10298940D-02
 -0.77727636D-03 -0.27067583D-02 -0.17020822D-02 -0.26963842D-03 -0.29476620D-02
 -0.18535690D-02 -0.29363646D-03  0.18340354D-02  0.11532907D-02  0.18270062D-03
 -0.67725905D-04 -0.65501547D-04 -0.20413971D-04 -0.13519512D-04 -0.13075484D-04
 -0.40750571D-05  0.42280726D-05  0.40892078D-05  0.12744274D-05 -0.49873320D-05
 -0.48235304D-05 -0.15032837D-05 -0.40925611D-06 -0.39581469D-06 -0.12335815D-06
 -0.21556822D-04 -0.20848820D-04 -0.64976664D-05 -0.17562798D-02 -0.16985974D-02
 -0.52937861D-03
MO    2     MO 0.0        OCC NO =    2.0000000  ORB. ENERGY =  -18.873227
 -0.43206120D-02 -0.41787078D-02 -0.13023207D-02 -0.59057318D-04  0.78993933D-04
  0.59617900D-04  0.53873677D-03  0.33877214D-03  0.53667198D-04 -0.57782460D-03
 -0.36335161D-03 -0.57561000D-04  0.52002857D-03  0.32700792D-03  0.51803548D-04
  0.42246709D+01  0.40859177D+01  0.12734021D+01 -0.68987129D-02  0.92275858D-02
  0.69641966D-02 -0.27048844D-02 -0.17009039D-02 -0.26945176D-03  0.72818298D-02
  0.45790100D-02  0.72539211D-03 -0.59222759D-02 -0.37240860D-02 -0.58995779D-03
 -0.51554316D-04 -0.49861090D-04 -0.15539524D-04 -0.21032217D-04  0.28132289D-04
  0.21231858D-04  0.91793020D-04  0.57721914D-04  0.91441210D-05 -0.14165389D-03
 -0.89075768D-04 -0.14111098D-04  0.11135600D-03  0.70023640D-04  0.11092921D-04
 -0.46989465D-04 -0.45446165D-04 -0.14163584D-04 -0.16286612D-04  0.21784659D-04
  0.16441207D-04 -0.66219995D-04 -0.41640910D-04 -0.65966198D-05 -0.35522977D-03
 -0.22337801D-03 -0.35386830D-04  0.24549462D-03  0.15437360D-03  0.24455373D-04
 -0.25130711D-04 -0.24305329D-04 -0.75749095D-05 -0.52984528D-05  0.70871087D-05
  0.53487466D-05  0.58613128D-04  0.36857508D-04  0.58388485D-05 -0.70276885D-05
 -0.44191991D-05 -0.70007539D-06  0.68695124D-05  0.43197337D-05  0.68431840D-06
  0.18406248D-02  0.17801722D-02  0.55480192D-03  0.12629263D-02 -0.16892659D-02
 -0.12749142D-02 -0.18079502D-02 -0.11368876D-02 -0.18010210D-03  0.47135971D-02
  0.29640364D-02  0.46955316D-03 -0.38544381D-02 -0.24237741D-02 -0.38396654D-03
  0.69374631D-05  0.67096123D-05  0.20910931D-05 -0.54608046D-05 -0.52814524D-05
 -0.16459980D-05  0.57815195D-05  0.55916339D-05  0.17426681D-05  0.31394980D-05
  0.30363858D-05  0.94630884D-06  0.62388436D-05  0.60339379D-05  0.18805149D-05
 -0.87286107D-04 -0.84419323D-04 -0.26309816D-04 -0.36017711D-04 -0.34834762D-04
 -0.10856474D-04
MO    3     MO 0.0        OCC NO =    2.0000000  ORB. ENERGY =  -14.109478
  0.24036376D-04  0.23246937D-04  0.72450548D-05  0.58925748D-05 -0.78817949D-05
 -0.59485082D-05  0.77131856D-04  0.48502581D-04  0.76836237D-05 -0.52687982D-04
 -0.33131617D-04 -0.52486047D-05  0.47091486D-05  0.29612390D-05  0.46911001D-06
 -0.11624031D-03 -0.11242256D-03 -0.35037203D-04 -0.26059896D-04  0.34857216D-04
  0.26307261D-04 -0.18664440D-03 -0.11736701D-03 -0.18592906D-04 -0.75876852D-04
 -0.47713401D-04 -0.75586043D-05  0.32063949D-04  0.20162672D-04  0.31941059D-05
  0.34289897D+01  0.33163696D+01  0.10335675D+01 -0.67950516D-02  0.90889304D-02
  0.68595514D-02 -0.19766894D-02 -0.12429953D-02 -0.19691135D-03  0.31836816D-02
  0.20019844D-02  0.31714797D-03  0.53639005D-02  0.33729646D-02  0.53433426D-03
  0.15759986D-02  0.15242373D-02  0.47503817D-03  0.91626632D-03 -0.12255802D-02
 -0.92496368D-03  0.21383099D-02  0.13446266D-02  0.21301145D-03  0.38758014D-02
  0.24372079D-02  0.38609468D-03  0.35313617D-03  0.22206150D-03  0.35178273D-04
 -0.37853883D-04 -0.36610628D-04 -0.11409933D-04 -0.36431013D-04  0.48729423D-04
  0.36776822D-04 -0.87132672D-04 -0.54791362D-04 -0.86798724D-05 -0.31961472D-03
 -0.20098231D-03 -0.31838975D-04 -0.93260406D-04 -0.58644646D-04 -0.92902972D-05
 -0.14497991D-04 -0.14021826D-04 -0.43699907D-05 -0.50084745D-04  0.66992392D-04
  0.50560158D-04 -0.22653296D-03 -0.14245000D-03 -0.22566474D-04 -0.57075810D-04
 -0.35890801D-04 -0.56857058D-05  0.11129084D-04  0.69982668D-05  0.11086430D-05
  0.73828262D-04  0.71403481D-04  0.22253346D-04 -0.73702974D-05 -0.71282308D-05
 -0.22215582D-05  0.51580066D-04  0.49885994D-04  0.15547285D-04  0.30329006D-04
  0.29332894D-04  0.91417818D-05 -0.21643357D-02 -0.20932513D-02 -0.65237500D-03
 -0.21561661D-02 -0.20853500D-02 -0.64991250D-03 -0.36603429D-06 -0.35401243D-06
 -0.11033021D-06
MO    4     MO 0.0        OCC NO =    2.0000000  ORB. ENERGY =  -10.101622
  0.26284808D-02  0.25421522D-02  0.79227780D-03  0.12876828D-02 -0.17223798D-02
 -0.12999057D-02  0.46084698D-02  0.28979295D-02  0.45908072D-03  0.39330692D-02
  0.24732194D-02  0.39179951D-03 -0.23235223D-02 -0.14610932D-02 -0.23146170D-03
  0.23203989D-02  0.22441888D-02  0.69941561D-03  0.17997784D-02 -0.24073490D-02
 -0.18168622D-02  0.14250079D-02  0.89608321D-03  0.14195463D-03 -0.40006152D-02
 -0.25156942D-02 -0.39852823D-03  0.32206922D-02  0.20252577D-02  0.32083485D-03
 -0.10988425D-04 -0.10627526D-04 -0.33121356D-05 -0.82964981D-04  0.11097236D-03
  0.83752499D-04 -0.24432458D-03 -0.15363786D-03 -0.24338818D-04  0.20507377D-03
  0.12895589D-03  0.20428780D-04  0.16560082D-03  0.10413424D-03  0.16496613D-04
 -0.29586498D-01 -0.28614772D-01 -0.89179747D-02  0.11162571D-02 -0.14930840D-02
 -0.11268528D-02 -0.41776069D-02 -0.26269913D-02 -0.41615956D-03  0.11248335D-02
  0.70732549D-03  0.11205224D-03 -0.13043032D-02 -0.82018085D-03 -0.12993043D-03
 -0.11915059D-02 -0.11523726D-02 -0.35914421D-03 -0.38415906D-04  0.51384378D-04
  0.38780556D-04 -0.28200988D-03 -0.17733538D-03 -0.28092903D-04  0.38061573D-04
  0.23934139D-04  0.37915697D-05 -0.87963858D-04 -0.55314034D-04 -0.87626723D-05
  0.26839242D+01  0.25957746D+01  0.80898957D+00 -0.60390226D-02  0.80776806D-02
  0.60963461D-02  0.11265423D-03  0.70840005D-04  0.11222247D-04 -0.39339932D-03
 -0.24738005D-03 -0.39189156D-04  0.43764652D-03  0.27520388D-03  0.43596918D-04
  0.64811266D-05  0.62682635D-05  0.19535439D-05 -0.54824405D-04 -0.53023778D-04
 -0.16525195D-04 -0.59936249D-04 -0.57967730D-04 -0.18066010D-04 -0.60435232D-04
 -0.58450325D-04 -0.18216413D-04 -0.46153172D-04 -0.44637338D-04 -0.13911509D-04
 -0.14668054D-03 -0.14186303D-03 -0.44212510D-04 -0.47174679D-03 -0.45625295D-03
 -0.14219412D-03
MO    5     MO 0.0        OCC NO =    2.0000000  ORB. ENERGY =  -10.057731
 -0.74850054D-04 -0.72391714D-04 -0.22561335D-04 -0.69088924D-04  0.92412017D-04
  0.69744728D-04 -0.16910028D-03 -0.10633479D-03 -0.16845218D-04 -0.13138012D-03
 -0.82615347D-04 -0.13087659D-04  0.23510979D-05  0.14784334D-05  0.23420869D-06
 -0.67457239D-04 -0.65241704D-04 -0.20332990D-04 -0.16452592D-04  0.22006671D-04
  0.16608763D-04 -0.57613597D-03 -0.36228976D-03 -0.57392785D-04 -0.10024130D-03
 -0.63034419D-04 -0.99857110D-05 -0.20073911D-04 -0.12623014D-04 -0.19996975D-05
  0.26662016D-02  0.25786341D-02  0.80364761D-03  0.11464591D-02 -0.15334816D-02
 -0.11573415D-02 -0.28359981D-02 -0.17833517D-02 -0.28251287D-03 -0.50622821D-02
 -0.31832988D-02 -0.50428802D-03 -0.33522294D-03 -0.21079718D-03 -0.33393815D-04
  0.26816809D+01  0.25936050D+01  0.80831341D+00 -0.68972411D-02  0.92256172D-02
  0.69627109D-02  0.41663446D-03  0.26199093D-03  0.41503764D-04  0.36556134D-03
  0.22987478D-03  0.36416027D-04 -0.33908258D-03 -0.21322423D-03 -0.33778300D-04
 -0.34998865D-01 -0.33849379D-01 -0.10549373D-01  0.12124411D-02 -0.16217379D-02
 -0.12239498D-02 -0.19098717D-02 -0.12009786D-02 -0.19025518D-03  0.30967185D-02
  0.19472997D-02  0.30848499D-03  0.31174529D-02  0.19603380D-02  0.31055048D-03
  0.33657274D-01  0.32551850D-01  0.10144990D-01  0.10640220D-02 -0.14232154D-02
 -0.10741219D-02  0.45720886D-02  0.28750520D-02  0.45545654D-03 -0.10553842D-02
 -0.66365392D-03 -0.10513393D-03  0.13908776D-02  0.87462113D-03  0.13855468D-03
 -0.25406999D-02 -0.24572544D-02 -0.76581885D-03  0.60015114D-04  0.58044005D-04
  0.18089781D-04  0.60790677D-04  0.58794096D-04  0.18323552D-04  0.50993977D-04
  0.49319155D-04  0.15370626D-04 -0.13825535D-03 -0.13371456D-03 -0.41672988D-04
 -0.15559518D-03 -0.15048489D-03 -0.46899567D-04 -0.45049005D-04 -0.43569437D-04
 -0.13578690D-04
MO    6     MO 0.0        OCC NO =    2.0000000  ORB. ENERGY =  -10.020076
 -0.64433438D-04 -0.62317216D-04 -0.19421554D-04 -0.17423311D-04  0.23305086D-04
  0.17588696D-04 -0.12322266D-03 -0.77485713D-04 -0.12275039D-04  0.31468722D-04
  0.19788377D-04  0.31348113D-05  0.57015760D-04  0.35853040D-04  0.56797239D-05
 -0.57726401D-04 -0.55830462D-04 -0.17399916D-04 -0.15543676D-04  0.20790922D-04
  0.15691219D-04 -0.80551991D-04 -0.50653254D-04 -0.80243264D-05  0.88449312D-04
  0.55619301D-04  0.88110317D-05  0.11365532D-04  0.71469517D-05  0.11321972D-05
 -0.18987424D-04 -0.18363810D-04 -0.57231975D-05 -0.40538089D-04  0.54222970D-04
  0.40922884D-04 -0.12839427D-03 -0.80737763D-04 -0.12790218D-04  0.13060752D-03
  0.82129514D-04  0.13010695D-04  0.89937873D-04  0.56555348D-04  0.89593173D-05
  0.39089140D-01  0.37805314D-01  0.11782265D-01  0.10166403D-02 -0.13598385D-02
 -0.10262904D-02  0.19939243D-02  0.12538331D-02  0.19862823D-03 -0.30119170D-02
 -0.18939742D-02 -0.30003734D-03 -0.31362286D-02 -0.19721447D-02 -0.31242086D-03
  0.26814320D+01  0.25933643D+01  0.80823838D+00 -0.72510085D-02  0.96988097D-02
  0.73198363D-02 -0.26872589D-03 -0.16898205D-03 -0.26769596D-04  0.37845866D-03
  0.23798496D-03  0.37700816D-04  0.36877037D-03  0.23189270D-03  0.36735700D-04
  0.18826236D-02  0.18207916D-02  0.56746120D-03  0.79417423D-05 -0.10622722D-04
 -0.80171267D-05 -0.80672602D-06 -0.50729097D-06 -0.80363413D-07 -0.51631243D-04
 -0.32467111D-04 -0.51433359D-05 -0.65109564D-04 -0.40942641D-04 -0.64860022D-05
  0.23276004D-05  0.22511538D-05  0.70158630D-06 -0.25409268D-02 -0.24574738D-02
 -0.76588723D-03 -0.25407224D-02 -0.24572761D-02 -0.76582562D-03 -0.25420310D-02
 -0.24585417D-02 -0.76622005D-03 -0.55592615D-04 -0.53766757D-04 -0.16756750D-04
 -0.23744900D-05 -0.22965033D-05 -0.71571978D-06  0.32996528D-05  0.31912805D-05
  0.99458274D-06
MO    7     MO 0.0        OCC NO =    2.0000000  ORB. ENERGY =   -1.015556
 -0.69847249D+00 -0.67553218D+00 -0.21053387D+00 -0.13900079D+00  0.18592478D+00
  0.14032021D+00  0.79102838D-02  0.49741987D-02  0.78799665D-03 -0.17628381D+00
 -0.11085199D+00 -0.17560818D-01  0.13700090D+00  0.86149843D-01  0.13647583D-01
 -0.54580310D+00 -0.52787700D+00 -0.16451620D+00 -0.10458033D+00  0.13988463D+00
  0.10557302D+00 -0.48018535D-01 -0.30195344D-01 -0.47834497D-02  0.17281278D+00
  0.10866931D+00  0.17215045D-01 -0.13609045D+00 -0.85577329D-01 -0.13556887D-01
 -0.28122883D-01 -0.27199229D-01 -0.84768115D-02 -0.47707644D-02  0.63812828D-02
  0.48160493D-02  0.43409845D-02  0.27297276D-02  0.43243471D-03  0.66405147D-02
  0.41757338D-02  0.66150640D-03  0.66832346D-02  0.42025973D-02  0.66576202D-03
 -0.57569986D-01 -0.55679184D-01 -0.17352770D-01 -0.85240716D-02  0.11401634D-01
  0.86049835D-02  0.20702091D-01  0.13018030D-01  0.20622747D-02 -0.40111030D-02
 -0.25222892D-02 -0.39957299D-03  0.58214491D-02  0.36606834D-02  0.57991376D-03
 -0.12614438D-01 -0.12200135D-01 -0.38022492D-02 -0.16759426D-02  0.22417086D-02
  0.16918509D-02  0.28938485D-02  0.18197296D-02  0.28827574D-03 -0.26326556D-02
 -0.16554845D-02 -0.26225656D-03 -0.18598796D-02 -0.11695422D-02 -0.18527513D-03
 -0.34639747D+00 -0.33502055D+00 -0.10441127D+00 -0.49136966D-01  0.65724661D-01
  0.49603382D-01  0.70548531D-01  0.44362810D-01  0.70278144D-02 -0.15957876D-01
 -0.10034741D-01 -0.15896716D-02  0.24752019D-01  0.15564734D-01  0.24657154D-02
  0.23103537D-02  0.22344735D-02  0.69638779D-03  0.79897977D-03  0.77273845D-03
  0.24082882D-03  0.31997652D-03  0.30946736D-03  0.96447458D-04  0.65202609D-03
  0.63061124D-03  0.19653398D-03  0.74148672D-03  0.71713367D-03  0.22349924D-03
  0.18729556D-02  0.18114411D-02  0.56454707D-03  0.27850974D-01  0.26936250D-01
  0.83948525D-02
MO    8     MO 0.0        OCC NO =    2.0000000  ORB. ENERGY =   -0.935687
  0.67143751D+00  0.64938513D+00  0.20238498D+00  0.13746120D+00 -0.18386546D+00
 -0.13876600D+00 -0.51923402D-01 -0.32650829D-01 -0.51724398D-02  0.11795342D+00
  0.74172278D-01  0.11750135D-01 -0.98983112D-01 -0.62243237D-01 -0.98603745D-02
 -0.73271581D+00 -0.70865083D+00 -0.22085551D+00 -0.14475335D+00  0.19361930D+00
  0.14612738D+00 -0.81611481D-01 -0.51319489D-01 -0.81298693D-02  0.18394809D+00
  0.11567149D+00  0.18324308D-01 -0.14869978D+00 -0.93506414D-01 -0.14812987D-01
 -0.39386740D-01 -0.38093140D-01 -0.11871968D-01 -0.69095101D-02  0.92420280D-02
  0.69750964D-02  0.37838003D-02  0.23793551D-02  0.37692983D-03  0.64101454D-02
  0.40308715D-02  0.63855776D-03  0.10419305D-01  0.65519387D-02  0.10379372D-02
 -0.23254300D-01 -0.22490546D-01 -0.70093209D-02 -0.38273692D-02  0.51194155D-02
  0.38636993D-02  0.25560270D-02  0.16072984D-02  0.25462307D-03 -0.97456286D-02
 -0.61283128D-02 -0.97082771D-03  0.64406716D-02  0.40500671D-02  0.64159868D-03
 -0.61930924D-02 -0.59896894D-02 -0.18667245D-02 -0.90879615D-03  0.12155883D-02
  0.91742260D-03  0.59308607D-03  0.37294844D-03  0.59081298D-04 -0.22446082D-02
 -0.14114699D-02 -0.22360054D-03 -0.31078420D-03 -0.19542944D-03 -0.30959307D-04
 -0.13070995D+00 -0.12641698D+00 -0.39398650D-01 -0.17774623D-01  0.23774994D-01
  0.17943342D-01 -0.15804870D-01 -0.99385263D-02 -0.15744295D-02 -0.14252152D+00
 -0.89621358D-01 -0.14197529D-01  0.10678081D+00  0.67146637D-01  0.10637155D-01
 -0.39170100D-03 -0.37883616D-03 -0.11806668D-03 -0.13850091D-03 -0.13395205D-03
 -0.41747004D-04  0.23204931D-03  0.22442799D-03  0.69944403D-04  0.63685617D-03
  0.61593956D-03  0.19196146D-03  0.13146851D-02  0.12715062D-02  0.39627295D-03
  0.31497888D-02  0.30463386D-02  0.94941067D-03 -0.29779036D-01 -0.28800987D-01
 -0.89760097D-02
MO    9     MO 0.0        OCC NO =    2.0000000  ORB. ENERGY =   -0.833258
  0.28560969D-01  0.27622925D-01  0.86088593D-02  0.61072099D-02 -0.81688867D-02
 -0.61651806D-02 -0.24972843D-01 -0.15703594D-01 -0.24877131D-02  0.90626174D-02
  0.56988170D-02  0.90278836D-03 -0.10587085D-01 -0.66574434D-02 -0.10546509D-02
  0.13905556D+00  0.13448848D+00  0.41914185D-01  0.28438410D-01 -0.38038671D-01
 -0.28708353D-01 -0.10970770D-01 -0.68987143D-02 -0.10928723D-02 -0.33924476D-01
 -0.21332621D-01 -0.33794455D-02  0.21156913D-01  0.13304035D-01  0.21075826D-02
 -0.64416877D+00 -0.62301199D+00 -0.19416562D+00 -0.11982974D+00  0.16028196D+00
  0.12096719D+00 -0.35050860D-01 -0.22040922D-01 -0.34916523D-02  0.11403238D+00
  0.71706622D-01  0.11359534D-01  0.14297665D+00  0.89907555D-01  0.14242867D-01
 -0.32308494D+00 -0.31247369D+00 -0.97384401D-01 -0.50039675D-01  0.66932108D-01
  0.50514660D-01 -0.39048058D-01 -0.24554467D-01 -0.38898400D-02 -0.53891185D-01
 -0.33888223D-01 -0.53684639D-02  0.74776472D-02  0.47021452D-02  0.74489880D-03
 -0.13788361D+00 -0.13335503D+00 -0.41560938D-01 -0.21209607D-01  0.28369563D-01
  0.21410933D-01  0.75534156D-02  0.47497904D-02  0.75244661D-03 -0.27069245D-01
 -0.17021867D-01 -0.26965498D-02 -0.19543840D-01 -0.12289691D-01 -0.19468935D-02
 -0.29071312D-01 -0.28116508D-01 -0.87626873D-02 -0.47513711D-02  0.63553426D-02
  0.47964719D-02 -0.54914031D-01 -0.34531417D-01 -0.54703565D-02  0.23016690D-01
  0.14473512D-01  0.22928475D-02 -0.27408003D-01 -0.17234888D-01 -0.27302958D-02
  0.15288256D-01  0.14786136D-01  0.46081927D-02  0.61117498D-02  0.59110183D-02
  0.18422062D-02  0.75462056D-02  0.72983615D-02  0.22745805D-02  0.75913150D-02
  0.73419893D-02  0.22881774D-02  0.35316294D-01  0.34156382D-01  0.10645052D-01
  0.34341777D-01  0.33213871D-01  0.10351313D-01 -0.35374148D-02 -0.34212336D-02
 -0.10662491D-02
MO   10     MO 0.0        OCC NO =    2.0000000  ORB. ENERGY =   -0.703273
  0.72661629D-01  0.70275164D-01  0.21901699D-01  0.16485736D-01 -0.22051004D-01
 -0.16642221D-01 -0.96883834D-01 -0.60923155D-01 -0.96512513D-02  0.98876360D-02
  0.62176109D-02  0.98497402D-03 -0.10498290D-01 -0.66016063D-02 -0.10458054D-02
  0.73610148D-01  0.71192530D-01  0.22187602D-01  0.15741813D-01 -0.21055947D-01
 -0.15891237D-01 -0.18198455D-01 -0.11443677D-01 -0.18128707D-02  0.45766571D-02
  0.28779248D-02  0.45591164D-03  0.72406592D-02  0.45531208D-02  0.72129083D-03
  0.35005637D+00  0.33855928D+00  0.10551414D+00  0.69502069D-01 -0.92964632D-01
 -0.70161794D-01  0.71856877D-01  0.45185532D-01  0.71581475D-02  0.16584250D-01
  0.10428621D-01  0.16520688D-02 -0.86272479D-01 -0.54250450D-01 -0.85941828D-02
 -0.27500949D+00 -0.26597720D+00 -0.82893476D-01 -0.46908774D-01  0.62744274D-01
  0.47354040D-01  0.24464991D-01  0.15384243D-01  0.24371225D-02  0.10436518D+00
  0.65627624D-01  0.10396518D-01  0.46259862D-01  0.29089443D-01  0.46082565D-02
 -0.47218487D+00 -0.45667665D+00 -0.14232616D+00 -0.78550708D-01  0.10506792D+00
  0.79296324D-01  0.19574089D-01  0.12308712D-01  0.19499069D-02 -0.81049889D-02
 -0.50966345D-02 -0.80739254D-03 -0.16111928D-01 -0.10131613D-01 -0.16050177D-02
 -0.99739747D-01 -0.96463941D-01 -0.30063597D-01 -0.17524926D-01  0.23441005D-01
  0.17691276D-01 -0.65286317D-01 -0.41053788D-01 -0.65036098D-02  0.42025616D-01
  0.26426835D-01  0.41864546D-02 -0.17678574D-01 -0.11116762D-01 -0.17610818D-02
  0.21951505D-01  0.21230540D-01  0.66166319D-02  0.36767602D-01  0.35560024D-01
  0.11082506D-01  0.34274378D-01  0.33148686D-01  0.10330998D-01  0.34594431D-01
  0.33458228D-01  0.10427468D-01 -0.27514008D-01 -0.26610351D-01 -0.82932839D-02
 -0.27798641D-01 -0.26885636D-01 -0.83790783D-02 -0.12315493D-01 -0.11911009D-01
 -0.37121413D-02
MO   11     MO 0.0        OCC NO =    2.0000000  ORB. ENERGY =   -0.611376
 -0.11210567D+00 -0.10842372D+00 -0.33790938D-01 -0.26457555D-01  0.35389117D-01
  0.26708695D-01  0.30996282D+00  0.19491294D+00  0.30877484D-01  0.36268129D-01
  0.22806373D-01  0.36129126D-02  0.29610375D-01  0.18619798D-01  0.29496889D-02
 -0.17695852D+00 -0.17114657D+00 -0.53338911D-01 -0.39877956D-01  0.53339988D-01
  0.40256485D-01  0.61026072D-01  0.38374831D-01  0.60792180D-02 -0.13937414D-01
 -0.87642199D-02 -0.13883997D-02  0.30680200D-01  0.19292533D-01  0.30562614D-02
 -0.12904974D+00 -0.12481129D+00 -0.38898228D-01 -0.27024263D-01  0.36147135D-01
  0.27280782D-01 -0.12212260D+00 -0.76793968D-01 -0.12165455D-01 -0.51973800D-01
 -0.32682520D-01 -0.51774603D-02  0.61597326D-01  0.38734052D-01  0.61361245D-02
  0.30838606D+00  0.29825757D+00  0.92953857D-01  0.56378980D-01 -0.75411441D-01
 -0.56914139D-01 -0.13858333D+00 -0.87144916D-01 -0.13805219D-01  0.23754108D-01
  0.14937220D-01  0.23663067D-02  0.57510997D-01  0.36164458D-01  0.57290578D-02
 -0.33976537D+00 -0.32860627D+00 -0.10241222D+00 -0.60008269D-01  0.80265907D-01
  0.60577878D-01 -0.61882026D-01 -0.38913079D-01 -0.61644854D-02  0.45528135D-01
  0.28629313D-01  0.45353642D-02  0.57528159D-01  0.36175250D-01  0.57307674D-02
  0.26742799D+00  0.25864471D+00  0.80608258D-01  0.50108727D-01 -0.67024471D-01
 -0.50584368D-01  0.12175281D+00  0.76561431D-01  0.12128617D-01 -0.73752313D-01
 -0.46377434D-01 -0.73469647D-02  0.88821556D-01  0.55853378D-01  0.88481134D-02
 -0.36159496D-01 -0.34971891D-01 -0.10899211D-01  0.32702775D-01  0.31628700D-01
  0.98572843D-02  0.40925230D-01  0.39581101D-01  0.12335700D-01  0.37999332D-01
  0.36751300D-01  0.11453775D-01  0.25495253D-01  0.24657899D-01  0.76847901D-02
  0.16825450D-01  0.16272843D-01  0.50715342D-02  0.36953469D-01  0.35739786D-01
  0.11138530D-01
MO   12     MO 0.0        OCC NO =    2.0000000  ORB. ENERGY =   -0.501433
  0.79599131D-01  0.76984815D-01  0.23992804D-01  0.19623481D-01 -0.26247992D-01
 -0.19809751D-01 -0.62277838D+00 -0.39161976D+00 -0.62039149D-01 -0.15449568D+00
 -0.97151030D-01 -0.15390355D-01  0.52370200D-01  0.32931787D-01  0.52169483D-02
  0.20489665D+00  0.19816712D+00  0.61760036D-01  0.49787664D-01 -0.66595023D-01
 -0.50260258D-01 -0.34304183D-01 -0.21571391D-01 -0.34172707D-02  0.10728285D+00
  0.67462335D-01  0.10687167D-01 -0.65868188D-01 -0.41419684D-01 -0.65615739D-02
 -0.83026090D-01 -0.80299220D-01 -0.25025759D-01 -0.18438405D-01  0.24662856D-01
  0.18613426D-01 -0.61550727D-01 -0.38704749D-01 -0.61314825D-02 -0.18652312D+00
 -0.11729074D+00 -0.18580824D-01  0.13192060D+00  0.82955212D-01  0.13141499D-01
  0.27328745D+00  0.26431172D+00  0.82374418D-01  0.54045055D-01 -0.72289627D-01
 -0.54558060D-01  0.13864314D+00  0.87182529D-01  0.13811177D-01 -0.45548438D-01
 -0.28642080D-01 -0.45373867D-02  0.13403173D+00  0.84282746D-01  0.13351803D-01
 -0.75029699D-01 -0.72565458D-01 -0.22615484D-01 -0.14211125D-01  0.19008528D-01
  0.14346019D-01  0.78966081D-02  0.49655991D-02  0.78663433D-03  0.50852735D-01
  0.31977564D-01  0.50657835D-02  0.12802947D+00  0.80508366D-01  0.12753878D-01
 -0.29435141D+00 -0.28468386D+00 -0.88723526D-01 -0.61496620D-01  0.82256697D-01
  0.62080357D-01  0.34446351D-01  0.21660790D-01  0.34314330D-02  0.12652859D+00
  0.79564570D-01  0.12604365D-01 -0.59001017D-01 -0.37101423D-01 -0.58774887D-02
 -0.59958901D-01 -0.57989639D-01 -0.18072838D-01  0.20871000D-01  0.20185522D-01
  0.62909456D-02  0.23426781D-02  0.22657362D-02  0.70613102D-03  0.30135233D-01
  0.29145485D-01  0.90833747D-02  0.10155862D-01  0.98223076D-02  0.30611843D-02
  0.39092628D-01  0.37808688D-01  0.11783317D-01 -0.71631973D-01 -0.69279326D-01
 -0.21591340D-01
MO   13     MO 0.0        OCC NO =    2.0000000  ORB. ENERGY =   -0.453241
 -0.37387426D-01 -0.36159491D-01 -0.11269334D-01 -0.99099541D-02  0.13255364D-01
  0.10004021D-01  0.50702001D+00  0.31882779D+00  0.50507678D-01  0.16905974D+00
  0.10630930D+00  0.16841180D-01 -0.22451772D-01 -0.14118277D-01 -0.22365723D-02
  0.90103174D-01  0.87143867D-01  0.27158937D-01  0.23337972D-01 -0.31216423D-01
 -0.23559500D-01 -0.23534985D+00 -0.14799430D+00 -0.23444784D-01 -0.20052107D-01
 -0.12609303D-01 -0.19975254D-02  0.90606381D-02  0.56975724D-02  0.90259119D-03
  0.45017936D-01  0.43539388D-01  0.13569326D-01  0.99038280D-02 -0.13247170D-01
 -0.99978369D-02  0.30339477D+00  0.19078277D+00  0.30223196D-01 -0.76652796D-01
 -0.48201335D-01 -0.76359013D-02  0.17580916D+00  0.11055352D+00  0.17513535D-01
 -0.50520817D-01 -0.48861535D-01 -0.15228006D-01 -0.10782602D-01  0.14422601D-01
  0.10884952D-01  0.10255695D+00  0.64490561D-01  0.10216388D-01 -0.14544550D+00
 -0.91460032D-01 -0.14488806D-01  0.20430667D+00  0.12847352D+00  0.20352364D-01
  0.45430909D-03  0.43938798D-03  0.13693804D-03 -0.27159438D-03  0.36327942D-03
  0.27417240D-03  0.88543566D-01  0.55678571D-01  0.88204210D-02 -0.93139583D-01
 -0.58568669D-01 -0.92782612D-02  0.11441095D+00  0.71944674D-01  0.11397245D-01
  0.45720775D-02  0.44219143D-02  0.13781175D-02  0.30212946D-02 -0.40412256D-02
 -0.30499733D-02 -0.23947196D+00 -0.15058640D+00 -0.23855415D-01 -0.92317223D-01
 -0.58051547D-01 -0.91963403D-02  0.71393201D-01  0.44893960D-01  0.71119576D-02
 -0.48584556D-01 -0.46988867D-01 -0.14644378D-01 -0.78648231D-02 -0.76065145D-02
 -0.23706183D-02 -0.34123430D-01 -0.33002696D-01 -0.10285499D-01  0.34841799D-01
  0.33697471D-01  0.10502030D-01 -0.64931247D-01 -0.62798676D-01 -0.19571604D-01
  0.44715590D-01  0.43246972D-01  0.13478192D-01  0.57074499D-01  0.55199970D-01
  0.17203420D-01
MO   14     MO 0.0        OCC NO =    2.0000000  ORB. ENERGY =   -0.397399
 -0.75697678D-01 -0.73211498D-01 -0.22816826D-01 -0.19969836D-01  0.26711268D-01
  0.20159393D-01  0.61022716D-01  0.38372721D-01  0.60788837D-02  0.20776151D+00
  0.13064601D+00  0.20696523D-01 -0.83452124D-01 -0.52476935D-01 -0.83132281D-02
 -0.16699719D+00 -0.16151241D+00 -0.50336365D-01 -0.44861335D-01  0.60005660D-01
  0.45287166D-01 -0.23861699D-01 -0.15004877D-01 -0.23770246D-02 -0.17245409D+00
 -0.10844376D+00 -0.17179314D-01  0.16514902D+00  0.10385014D+00  0.16451607D-01
 -0.56299448D-01 -0.54450375D-01 -0.16969803D-01 -0.12736062D-01  0.17035512D-01
  0.12856955D-01 -0.30861094D-01 -0.19406284D-01 -0.30742814D-02 -0.27996291D+00
 -0.17604819D+00 -0.27888992D-01  0.11298707D+00  0.71049299D-01  0.11255403D-01
  0.27517002D-01  0.26613246D-01  0.82941863D-02  0.75784219D-02 -0.10136752D-01
 -0.76503576D-02  0.13610678D+00  0.85587597D-01  0.13558513D-01  0.16561176D+00
  0.10414112D+00  0.16497703D-01 -0.65925458D-01 -0.41455697D-01 -0.65672789D-02
  0.11883073D-02  0.11492791D-02  0.35818010D-03  0.57329746D-03 -0.76683167D-03
 -0.57873930D-03  0.25670582D+00  0.16142351D+00  0.25572196D-01  0.28216921D+00
  0.17743557D+00  0.28108776D-01 -0.96917382D-01 -0.60944250D-01 -0.96545932D-02
  0.10293005D+00  0.99549459D-01  0.31025218D-01  0.22270613D-01 -0.29788745D-01
 -0.22482010D-01 -0.90753223D-01 -0.57068062D-01 -0.90405398D-02  0.39946684D-01
  0.25119547D-01  0.39793582D-02  0.12476165D-02  0.78453474D-03  0.12428348D-03
  0.32032686D-01  0.30980619D-01  0.96553059D-02  0.10030703D+00  0.97012594D-01
  0.30234588D-01 -0.42237399D-01 -0.40850173D-01 -0.12731215D-01 -0.55318535D-01
 -0.53501679D-01 -0.16674136D-01 -0.47708181D-02 -0.46141275D-02 -0.14380220D-02