 opt arginine pbe0
GAUSSIAN             74 MOL ORBITALS    222 PRIMITIVES       26 NUCLEI
  O    1    (CENTRE  1)   4.47958558  3.86453414 -0.67842254  CHARGE =  8.0
  O    2    (CENTRE  2)   6.09665657  1.20357934  2.41189775  CHARGE =  8.0
  N    3    (CENTRE  3)   5.65851629 -3.10028582 -0.82761207  CHARGE =  7.0
  N    4    (CENTRE  4)  -3.58682273  0.54249627  0.52835934  CHARGE =  7.0
  N    5    (CENTRE  5)  -7.18453878  2.92889705 -0.68111912  CHARGE =  7.0
  N    6    (CENTRE  6)  -7.67951222 -1.57615854 -0.19231565  CHARGE =  7.0
  C    7    (CENTRE  7)   1.43844184 -1.04950489 -1.56430624  CHARGE =  6.0
  C    8    (CENTRE  8)   0.36036629 -1.98062473  0.97612654  CHARGE =  6.0
  C    9    (CENTRE  9)   4.35135595 -0.68762413 -1.53677989  CHARGE =  6.0
  C   10    (CENTRE 10)  -2.55699011 -2.07787877  0.91527340  CHARGE =  6.0
  C   11    (CENTRE 11)   5.09408755  1.48944768  0.30924059  CHARGE =  6.0
  C   12    (CENTRE 12)  -6.01322545  0.56139944  0.04931511  CHARGE =  6.0
  H   13    (CENTRE 13)   0.54248487  0.75604141 -2.05261367  CHARGE =  1.0
  H   14    (CENTRE 14)   0.97519701 -2.41833279 -3.04987682  CHARGE =  1.0
  H   15    (CENTRE 15)   1.09403939 -3.87292690  1.39750569  CHARGE =  1.0
  H   16    (CENTRE 16)   0.95471458 -0.71000281  2.50233900  CHARGE =  1.0
  H   17    (CENTRE 17)   4.95677683 -0.14625863 -3.45321523  CHARGE =  1.0
  H   18    (CENTRE 18)  -3.18532637 -3.36140772 -0.60123223  CHARGE =  1.0
  H   19    (CENTRE 19)  -3.24421370 -2.86765989  2.72032754  CHARGE =  1.0
  H   20    (CENTRE 20)   5.64576167 -3.08549791  1.15986032  CHARGE =  1.0
  H   21    (CENTRE 21)   7.57653964 -2.76796948 -1.21770351  CHARGE =  1.0
  H   22    (CENTRE 22)   5.01466931  5.05121660  0.72580948  CHARGE =  1.0
  H   23    (CENTRE 23)  -5.82829938  4.32722336 -0.37069305  CHARGE =  1.0
  H   24    (CENTRE 24)  -8.68759273  3.32619231  0.54036788  CHARGE =  1.0
  H   25    (CENTRE 25)  -9.55684178 -0.99646921 -0.10477676  CHARGE =  1.0
  H   26    (CENTRE 26)  -7.36556090 -2.87498651  1.25169506  CHARGE =  1.0
CENTRE ASSIGNMENTS    1  1  1  1  1  1  1  1  1  1  1  1  1  1  1  2  2  2  2  2
CENTRE ASSIGNMENTS    2  2  2  2  2  2  2  2  2  2  3  3  3  3  3  3  3  3  3  3
CENTRE ASSIGNMENTS    3  3  3  3  3  4  4  4  4  4  4  4  4  4  4  4  4  4  4  4
CENTRE ASSIGNMENTS    5  5  5  5  5  5  5  5  5  5  5  5  5  5  5  6  6  6  6  6
CENTRE ASSIGNMENTS    6  6  6  6  6  6  6  6  6  6  7  7  7  7  7  7  7  7  7  7
CENTRE ASSIGNMENTS    7  7  7  7  7  8  8  8  8  8  8  8  8  8  8  8  8  8  8  8
CENTRE ASSIGNMENTS    9  9  9  9  9  9  9  9  9  9  9  9  9  9  9 10 10 10 10 10
CENTRE ASSIGNMENTS   10 10 10 10 10 10 10 10 10 10 11 11 11 11 11 11 11 11 11 11
CENTRE ASSIGNMENTS   11 11 11 11 11 12 12 12 12 12 12 12 12 12 12 12 12 12 12 12
CENTRE ASSIGNMENTS   13 13 13 14 14 14 15 15 15 16 16 16 17 17 17 18 18 18 19 19
CENTRE ASSIGNMENTS   19 20 20 20 21 21 21 22 22 22 23 23 23 24 24 24 25 25 25 26
CENTRE ASSIGNMENTS   26 26
TYPE ASSIGNMENTS      1  1  1  1  1  1  2  2  2  3  3  3  4  4  4  1  1  1  1  1
TYPE ASSIGNMENTS      1  2  2  2  3  3  3  4  4  4  1  1  1  1  1  1  2  2  2  3
TYPE ASSIGNMENTS      3  3  4  4  4  1  1  1  1  1  1  2  2  2  3  3  3  4  4  4
TYPE ASSIGNMENTS      1  1  1  1  1  1  2  2  2  3  3  3  4  4  4  1  1  1  1  1
TYPE ASSIGNMENTS      1  2  2  2  3  3  3  4  4  4  1  1  1  1  1  1  2  2  2  3
TYPE ASSIGNMENTS      3  3  4  4  4  1  1  1  1  1  1  2  2  2  3  3  3  4  4  4
TYPE ASSIGNMENTS      1  1  1  1  1  1  2  2  2  3  3  3  4  4  4  1  1  1  1  1
TYPE ASSIGNMENTS      1  2  2  2  3  3  3  4  4  4  1  1  1  1  1  1  2  2  2  3
TYPE ASSIGNMENTS      3  3  4  4  4  1  1  1  1  1  1  2  2  2  3  3  3  4  4  4
TYPE ASSIGNMENTS      1  1  1  1  1  1  1  1  1  1  1  1  1  1  1  1  1  1  1  1
TYPE ASSIGNMENTS      1  1  1  1  1  1  1  1  1  1  1  1  1  1  1  1  1  1  1  1
TYPE ASSIGNMENTS      1  1
EXPONENTS  0.1307093D+03 0.2380887D+02 0.6443608D+01 0.5033151D+01 0.1169596D+01
EXPONENTS  0.3803890D+00 0.5033151D+01 0.1169596D+01 0.3803890D+00 0.5033151D+01
EXPONENTS  0.1169596D+01 0.3803890D+00 0.5033151D+01 0.1169596D+01 0.3803890D+00
EXPONENTS  0.1307093D+03 0.2380887D+02 0.6443608D+01 0.5033151D+01 0.1169596D+01
EXPONENTS  0.3803890D+00 0.5033151D+01 0.1169596D+01 0.3803890D+00 0.5033151D+01
EXPONENTS  0.1169596D+01 0.3803890D+00 0.5033151D+01 0.1169596D+01 0.3803890D+00
EXPONENTS  0.9910617D+02 0.1805231D+02 0.4885660D+01 0.3780456D+01 0.8784966D+00
EXPONENTS  0.2857144D+00 0.3780456D+01 0.8784966D+00 0.2857144D+00 0.3780456D+01
EXPONENTS  0.8784966D+00 0.2857144D+00 0.3780456D+01 0.8784966D+00 0.2857144D+00
EXPONENTS  0.9910617D+02 0.1805231D+02 0.4885660D+01 0.3780456D+01 0.8784966D+00
EXPONENTS  0.2857144D+00 0.3780456D+01 0.8784966D+00 0.2857144D+00 0.3780456D+01
EXPONENTS  0.8784966D+00 0.2857144D+00 0.3780456D+01 0.8784966D+00 0.2857144D+00
EXPONENTS  0.9910617D+02 0.1805231D+02 0.4885660D+01 0.3780456D+01 0.8784966D+00
EXPONENTS  0.2857144D+00 0.3780456D+01 0.8784966D+00 0.2857144D+00 0.3780456D+01
EXPONENTS  0.8784966D+00 0.2857144D+00 0.3780456D+01 0.8784966D+00 0.2857144D+00
EXPONENTS  0.9910617D+02 0.1805231D+02 0.4885660D+01 0.3780456D+01 0.8784966D+00
EXPONENTS  0.2857144D+00 0.3780456D+01 0.8784966D+00 0.2857144D+00 0.3780456D+01
EXPONENTS  0.8784966D+00 0.2857144D+00 0.3780456D+01 0.8784966D+00 0.2857144D+00
EXPONENTS  0.7161684D+02 0.1304510D+02 0.3530512D+01 0.2941249D+01 0.6834831D+00
EXPONENTS  0.2222899D+00 0.2941249D+01 0.6834831D+00 0.2222899D+00 0.2941249D+01
EXPONENTS  0.6834831D+00 0.2222899D+00 0.2941249D+01 0.6834831D+00 0.2222899D+00
EXPONENTS  0.7161684D+02 0.1304510D+02 0.3530512D+01 0.2941249D+01 0.6834831D+00
EXPONENTS  0.2222899D+00 0.2941249D+01 0.6834831D+00 0.2222899D+00 0.2941249D+01
EXPONENTS  0.6834831D+00 0.2222899D+00 0.2941249D+01 0.6834831D+00 0.2222899D+00
EXPONENTS  0.7161684D+02 0.1304510D+02 0.3530512D+01 0.2941249D+01 0.6834831D+00
EXPONENTS  0.2222899D+00 0.2941249D+01 0.6834831D+00 0.2222899D+00 0.2941249D+01
EXPONENTS  0.6834831D+00 0.2222899D+00 0.2941249D+01 0.6834831D+00 0.2222899D+00
EXPONENTS  0.7161684D+02 0.1304510D+02 0.3530512D+01 0.2941249D+01 0.6834831D+00
EXPONENTS  0.2222899D+00 0.2941249D+01 0.6834831D+00 0.2222899D+00 0.2941249D+01
EXPONENTS  0.6834831D+00 0.2222899D+00 0.2941249D+01 0.6834831D+00 0.2222899D+00
EXPONENTS  0.7161684D+02 0.1304510D+02 0.3530512D+01 0.2941249D+01 0.6834831D+00
EXPONENTS  0.2222899D+00 0.2941249D+01 0.6834831D+00 0.2222899D+00 0.2941249D+01
EXPONENTS  0.6834831D+00 0.2222899D+00 0.2941249D+01 0.6834831D+00 0.2222899D+00
EXPONENTS  0.7161684D+02 0.1304510D+02 0.3530512D+01 0.2941249D+01 0.6834831D+00
EXPONENTS  0.2222899D+00 0.2941249D+01 0.6834831D+00 0.2222899D+00 0.2941249D+01
EXPONENTS  0.6834831D+00 0.2222899D+00 0.2941249D+01 0.6834831D+00 0.2222899D+00
EXPONENTS  0.3425251D+01 0.6239137D+00 0.1688554D+00 0.3425251D+01 0.6239137D+00
EXPONENTS  0.1688554D+00 0.3425251D+01 0.6239137D+00 0.1688554D+00 0.3425251D+01
EXPONENTS  0.6239137D+00 0.1688554D+00 0.3425251D+01 0.6239137D+00 0.1688554D+00
EXPONENTS  0.3425251D+01 0.6239137D+00 0.1688554D+00 0.3425251D+01 0.6239137D+00
EXPONENTS  0.1688554D+00 0.3425251D+01 0.6239137D+00 0.1688554D+00 0.3425251D+01
EXPONENTS  0.6239137D+00 0.1688554D+00 0.3425251D+01 0.6239137D+00 0.1688554D+00
EXPONENTS  0.3425251D+01 0.6239137D+00 0.1688554D+00 0.3425251D+01 0.6239137D+00
EXPONENTS  0.1688554D+00 0.3425251D+01 0.6239137D+00 0.1688554D+00 0.3425251D+01
EXPONENTS  0.6239137D+00 0.1688554D+00
MO    1     MO 0.0        OCC NO =    2.0000005  ORB. ENERGY =    0.000000
  0.10845411D+00  0.10489210D+00  0.32690285D-01  0.21339728D-03 -0.28543610D-03
 -0.21542288D-03 -0.50713115D-04 -0.31889767D-04 -0.50518749D-05  0.62515818D-03
  0.39311624D-03  0.62276218D-04  0.56661152D-03  0.35630053D-03  0.56443990D-04
  0.16106342D+01  0.15577352D+01  0.48547803D+00  0.14233191D-03 -0.19038043D-03
 -0.14368295D-03 -0.40478954D-02 -0.25454252D-02 -0.40323812D-03  0.77761728D-03
  0.48898661D-03  0.77463695D-04 -0.79485942D-02 -0.49982893D-02 -0.79181301D-03
  0.24027388D+01  0.23238244D+01  0.72423455D+00 -0.19450522D-02  0.26016644D-02
  0.19635150D-02  0.68635529D-02  0.43159862D-02  0.68372473D-03  0.13905947D-01
  0.87444327D-02  0.13852651D-02  0.77252105D-02  0.48578196D-02  0.76956025D-03
  0.18456942D+01  0.17850750D+01  0.55632992D+00 -0.19580110D-02  0.26189978D-02
  0.19765967D-02 -0.67962097D-02 -0.42736390D-02 -0.67701622D-03 -0.64745560D-02
 -0.40713745D-02 -0.64497413D-03 -0.91404534D-03 -0.57477624D-03 -0.91054213D-04
  0.37191095D-01  0.35969608D-01  0.11210156D-01  0.32029667D-04 -0.42842267D-04
 -0.32333698D-04  0.11911549D-03  0.74903014D-04  0.11865896D-04  0.46268212D-03
  0.29094693D-03  0.46090882D-04  0.11215365D-03  0.70525224D-04  0.11172380D-04
 -0.65409087D-01 -0.63260821D-01 -0.19715635D-01  0.19285944D-03 -0.25796509D-03
 -0.19469010D-03 -0.35876190D-03 -0.22559911D-03 -0.35738689D-04 -0.10354573D-02
 -0.65112333D-03 -0.10314887D-03 -0.45156386D-03 -0.28395547D-03 -0.44983318D-04
  0.31550933D-01  0.30514689D-01  0.95100957D-02 -0.18332411D-03  0.24521081D-03
  0.18506426D-03  0.45622110D-03  0.28688407D-03  0.45447257D-04  0.13047978D-03
  0.82049186D-04  0.12997970D-04 -0.21559110D-03 -0.13556947D-03 -0.21476481D-04
  0.33179072D-01  0.32089354D-01  0.10000850D-01 -0.14931929D-03  0.19972661D-03
  0.15073665D-03 -0.26103576D-03 -0.16414629D-03 -0.26003530D-04  0.69114311D-06
  0.43460933D-06  0.68849420D-07  0.16544910D-03  0.10403884D-03  0.16481500D-04
  0.28263522D-02  0.27335248D-02  0.85192027D-03  0.85626301D-03 -0.11453209D-02
 -0.86439080D-03 -0.73558703D-03 -0.46255686D-03 -0.73276778D-04  0.14210688D-02
  0.89360619D-03  0.14156223D-03 -0.73621507D-03 -0.46295179D-03 -0.73339341D-04
 -0.33019666D-01 -0.31935183D-01 -0.99528018D-02  0.59391710D-03 -0.79441210D-03
 -0.59955466D-03  0.54091765D-03  0.34014353D-03  0.53884451D-04 -0.22159075D-02
 -0.13934221D-02 -0.22074147D-03  0.22892401D-03  0.14395356D-03  0.22804662D-04
  0.71251620D+00  0.68911464D+00  0.21476693D+00 -0.11748075D-02  0.15714000D-02
  0.11859590D-02  0.44022206D-04  0.27682344D-04  0.43853484D-05  0.39280255D-03
  0.24700478D-03  0.39129707D-04 -0.16631318D-03 -0.10458219D-03 -0.16567576D-04
  0.27572868D+00  0.26667277D+00  0.83110255D-01 -0.10697663D-03  0.14308988D-03
  0.10799207D-03 -0.20555898D-02 -0.12926100D-02 -0.20477115D-03 -0.10256049D-02
 -0.64492788D-03 -0.10216741D-03 -0.45079999D-03 -0.28347513D-03 -0.44907223D-04
 -0.24797976D-03 -0.23983522D-03 -0.74746163D-04 -0.12866721D-03 -0.12444133D-03
 -0.38782927D-04 -0.17338266D-03 -0.16768816D-03 -0.52261075D-04 -0.13030639D-03
 -0.12602666D-03 -0.39277006D-04  0.12806766D-03  0.12386146D-03  0.38602208D-04
 -0.88855354D-05 -0.85937030D-05 -0.26782818D-05 -0.21263720D-04 -0.20565344D-04
 -0.64093194D-05 -0.12713978D-02 -0.12296406D-02 -0.38322527D-03 -0.11926074D-02
 -0.11534379D-02 -0.35947622D-03 -0.37088292D-03 -0.35870182D-03 -0.11179169D-03
 -0.21344611D-03 -0.20643578D-03 -0.64337017D-04 -0.48315607D-04 -0.46728752D-04
 -0.14563311D-04  0.15061195D-03  0.14566532D-03  0.45397519D-04  0.73351988D-06
  0.70942849D-06  0.22109787D-06
MO    2     MO 0.0        OCC NO =    2.0000005  ORB. ENERGY =    0.000000
 -0.66021934D-01 -0.63853541D-01 -0.19900360D-01 -0.13743853D-03  0.18383514D-03
  0.13874312D-03  0.57345764D-04  0.36060555D-04  0.57125978D-05 -0.42837562D-03
 -0.26937409D-03 -0.42673381D-04 -0.35503897D-03 -0.22325803D-03 -0.35367824D-04
 -0.10621406D+01 -0.10272562D+01 -0.32015087D+00 -0.88549706D-04  0.11844239D-03
  0.89390235D-04  0.26656681D-02  0.16762436D-02  0.26554515D-03 -0.52776754D-03
 -0.33187439D-03 -0.52574479D-04  0.52204740D-02  0.32827742D-02  0.52004658D-03
 -0.15637030D+01 -0.15123455D+01 -0.47133203D+00  0.12675880D-02 -0.16955013D-02
 -0.12796201D-02 -0.44684208D-02 -0.28098629D-02 -0.44512949D-03 -0.90162711D-02
 -0.56696732D-02 -0.89817150D-03 -0.50225103D-02 -0.31582892D-02 -0.50032608D-03
  0.28244617D+01  0.27316964D+01  0.85135046D+00 -0.30088027D-02  0.40245166D-02
  0.30373627D-02 -0.10371450D-01 -0.65218462D-02 -0.10331700D-02 -0.98894018D-02
 -0.62187212D-02 -0.98514992D-03 -0.13938449D-02 -0.87648707D-03 -0.13885028D-03
  0.57738201D-01  0.55841874D-01  0.17403473D-01  0.49153005D-04 -0.65746115D-04
 -0.49619574D-04  0.18532889D-03  0.11653978D-03  0.18461859D-04  0.70961183D-03
  0.44622296D-03  0.70689214D-04  0.17767513D-03  0.11172689D-03  0.17699417D-04
 -0.10358318D+00 -0.10018114D+00 -0.31222087D-01  0.30315889D-03 -0.40549951D-03
 -0.30603653D-03 -0.54981263D-03 -0.34573694D-03 -0.54770540D-04 -0.15877208D-02
 -0.99840147D-03 -0.15816357D-03 -0.71055694D-03 -0.44681727D-03 -0.70783363D-04
  0.41818994D-01  0.40445511D-01  0.12605099D-01 -0.91082339D-04  0.12182999D-03
  0.91946908D-04 -0.27394856D-03 -0.17226620D-03 -0.27289861D-04  0.26308776D-04
  0.16543664D-04  0.26207943D-05  0.18984083D-05  0.11937701D-05  0.18911324D-06
 -0.13526674D-01 -0.13082410D-01 -0.40772158D-02 -0.35522224D-04  0.47513845D-04
  0.35859408D-04 -0.37177756D-03 -0.23378371D-03 -0.37035267D-04 -0.22609944D-05
 -0.14217740D-05 -0.22523289D-06 -0.40964383D-07 -0.25759503D-07 -0.40807381D-08
  0.27883089D-02  0.26967310D-02  0.84045326D-03 -0.55197743D-03  0.73831441D-03
  0.55721690D-03  0.52534612D-03  0.33035174D-03  0.52333266D-04 -0.87892012D-03
 -0.55268856D-03 -0.87555153D-04  0.50215704D-03  0.31576982D-03  0.50023245D-04
 -0.67856513D-01 -0.65627865D-01 -0.20453339D-01  0.95468925D-03 -0.12769740D-02
 -0.96375133D-03  0.69496057D-03  0.43700985D-03  0.69229703D-04 -0.33748990D-02
 -0.21222270D-02 -0.33619642D-03  0.39677136D-03  0.24950048D-03  0.39525067D-04
 -0.46835297D+00 -0.45297060D+00 -0.14117115D+00  0.77359788D-03 -0.10347497D-02
 -0.78094100D-03 -0.35883895D-04 -0.22564756D-04 -0.35746365D-05 -0.25741342D-03
 -0.16186847D-03 -0.25642685D-04  0.12463045D-03  0.78370970D-04  0.12415278D-04
  0.42481339D+00  0.41086101D+00  0.12804743D+00 -0.16991630D-03  0.22727677D-03
  0.17152917D-03 -0.31493508D-02 -0.19803963D-02 -0.31372805D-03 -0.15706414D-02
 -0.98766148D-03 -0.15646217D-03 -0.68838796D-03 -0.43287682D-03 -0.68574961D-04
 -0.21515354D-03 -0.20808714D-03 -0.64851672D-04  0.13057352D-04  0.12628502D-04
  0.39357525D-05 -0.12974603D-04 -0.12548471D-04 -0.39108102D-05 -0.37384954D-05
 -0.36157100D-05 -0.11268589D-05 -0.94921788D-04 -0.91804221D-04 -0.28611366D-04
  0.11802930D-05  0.11415280D-05  0.35576442D-06  0.19495377D-04  0.18855080D-04
  0.58763047D-05  0.82490799D-03  0.79781509D-03  0.24864412D-03  0.77023618D-03
  0.74493890D-03  0.23216492D-03  0.24096305D-03  0.23304898D-03  0.72631186D-04
 -0.32594859D-03 -0.31524328D-03 -0.98247562D-04 -0.75036621D-04 -0.72572153D-04
 -0.22617570D-04  0.23449402D-03  0.22679241D-03  0.70681288D-04  0.74575564D-05
  0.72126239D-05  0.22478598D-05
MO    3     MO 0.0        OCC NO =    2.0000005  ORB. ENERGY =    0.000000
  0.14322797D+00  0.13852386D+00  0.43171837D-01  0.19744215D-03 -0.26409482D-03
 -0.19931630D-03  0.16665566D-03  0.10479755D-03  0.16601692D-04  0.22082455D-02
  0.13886040D-02  0.21997820D-03  0.73843836D-04  0.46434986D-04  0.73560819D-05
  0.31984636D+01  0.30934148D+01  0.96408226D+00 -0.24422864D-03  0.32667554D-03
  0.24654690D-03 -0.72080437D-02 -0.45326113D-02 -0.71804178D-03  0.20781392D-02
  0.13067897D-02  0.20701744D-03 -0.15328940D-01 -0.96392491D-02 -0.15270190D-02
 -0.18924998D+01 -0.18303434D+01 -0.57043809D+00  0.16862793D-02 -0.22555348D-02
 -0.17022858D-02 -0.47520527D-02 -0.29882183D-02 -0.47338398D-03 -0.10072104D-01
 -0.63336092D-02 -0.10033501D-02 -0.50626278D-02 -0.31835162D-02 -0.50432245D-03
  0.79791792D-02  0.77171147D-02  0.24050876D-02 -0.10802495D-04  0.14449210D-04
  0.10905034D-04 -0.15302773D-04 -0.96227942D-05 -0.15244123D-05 -0.18957481D-04
 -0.11920972D-04 -0.18884823D-05 -0.62295313D-05 -0.39172964D-05 -0.62056557D-06
 -0.96362775D-03 -0.93197881D-03 -0.29045709D-03  0.17184965D-05 -0.22986280D-05
 -0.17348088D-05 -0.38698360D-05 -0.24334567D-05 -0.38550043D-06  0.39512749D-05
  0.24846677D-05  0.39361310D-06 -0.98758451D-05 -0.62101964D-05 -0.98379945D-06
 -0.19587691D-02 -0.18944362D-02 -0.59041302D-03  0.38404679D-05 -0.51369360D-05
 -0.38769223D-05 -0.20926080D-05 -0.13158881D-05 -0.20845878D-06 -0.97320742D-05
 -0.61197894D-05 -0.96947746D-06 -0.14171659D-04 -0.89115196D-05 -0.14117344D-05
  0.11250717D-01  0.10881204D-01  0.33911959D-02 -0.83669821D-05  0.11191514D-04
  0.84464029D-05 -0.89084027D-04 -0.56018426D-04 -0.88742599D-05  0.80911246D-04
  0.50879163D-04  0.80601142D-05  0.67655730D-04  0.42543738D-04  0.67396429D-05
 -0.15295195D-01 -0.14792847D-01 -0.46102843D-02  0.16257979D-04 -0.21746360D-04
 -0.16412303D-04  0.25544949D-04  0.16063349D-04  0.25447044D-05  0.64973767D-04
  0.40857248D-04  0.64724746D-05 -0.53212537D-04 -0.33461471D-04 -0.53008592D-05
 -0.32111022D-02 -0.31056383D-02 -0.96789180D-03  0.48652672D-04 -0.65076879D-04
 -0.49114492D-04 -0.14040930D-03 -0.88293133D-04 -0.13987116D-04 -0.40299882D-02
 -0.25341647D-02 -0.40145427D-03 -0.14691773D-02 -0.92385811D-03 -0.14635465D-03
 -0.38060560D-02 -0.36810517D-02 -0.11472230D-02  0.12568685D-04 -0.16811632D-04
 -0.12687989D-04 -0.32832454D-04 -0.20645928D-04 -0.32706619D-05 -0.24069822D-05
 -0.15135750D-05 -0.23977571D-06  0.12559684D-04  0.78978665D-05  0.12511547D-05
  0.97020540D+00  0.93834043D+00  0.29243973D+00 -0.14769722D-02  0.19755697D-02
  0.14909919D-02 -0.12494155D-02 -0.78566597D-03 -0.12446269D-03  0.99980142D-03
  0.62870196D-03  0.99596954D-04 -0.22031048D-02 -0.13853714D-02 -0.21946611D-03
  0.23349175D-02  0.22582306D-02  0.70379183D-03 -0.43713270D-05  0.58470030D-05
  0.44128204D-05 -0.73467056D-05 -0.46198056D-05 -0.73185483D-06 -0.50339177D-05
 -0.31654625D-05 -0.50146244D-06 -0.59707968D-06 -0.37545973D-06 -0.59479129D-07
  0.42432790D-04  0.41039147D-04  0.12790110D-04 -0.85722641D-04 -0.82907207D-04
 -0.25838555D-04  0.83887655D-04  0.81132488D-04  0.25285453D-04 -0.92004336D-04
 -0.88982588D-04 -0.27731986D-04  0.26525735D-04  0.25654536D-04  0.79953984D-05
 -0.30324762D-06 -0.29328789D-06 -0.91405025D-07  0.15312678D-04  0.14809756D-04
  0.46155540D-05  0.79688520D-03  0.77071267D-03  0.24019748D-03  0.93206065D-03
  0.90144848D-03  0.28094212D-03 -0.33653253D-03 -0.32547961D-03 -0.10143778D-03
 -0.27968357D-06 -0.27049777D-06 -0.84302339D-07  0.17334564D-06  0.16765236D-06
  0.52249916D-07  0.22491073D-05  0.21752387D-05  0.67792689D-06  0.16527427D-05
  0.15984608D-05  0.49817041D-06
MO    4     MO 0.0        OCC NO =    2.0000003  ORB. ENERGY =    0.000000
  0.41911584D+01  0.40535059D+01  0.12633007D+01 -0.52770183D-03  0.70584383D-03
  0.53271087D-03  0.89784890D-02  0.56459148D-02  0.89440777D-03 -0.54579842D-02
 -0.34321270D-02 -0.54370657D-03  0.19209319D-01  0.12079335D-01  0.19135697D-02
 -0.48931530D+00 -0.47324446D+00 -0.14748963D+00 -0.38495631D-04  0.51491017D-04
  0.38861038D-04  0.12115415D-02  0.76184981D-03  0.12068981D-03 -0.36458611D-03
 -0.22926153D-03 -0.36318878D-04  0.24900612D-02  0.15658173D-02  0.24805177D-03
 -0.62444472D-01 -0.60393575D-01 -0.18822039D-01  0.83449013D-04 -0.11161980D-03
 -0.84241125D-04 -0.11954882D-03 -0.75175504D-04 -0.11909063D-04 -0.27534133D-03
 -0.17314201D-03 -0.27428604D-04 -0.12287166D-03 -0.77264997D-04 -0.12240074D-04
 -0.42683299D-02 -0.41281428D-02 -0.12865618D-02  0.50569573D-05 -0.67640889D-05
 -0.51049588D-05  0.20707636D-04  0.13021517D-04  0.20628271D-05  0.14253519D-04
  0.89629953D-05  0.14198890D-05 -0.34319222D-05 -0.21580848D-05 -0.34187689D-06
  0.61430437D-04  0.59412844D-04  0.18516388D-04 -0.63152794D-06  0.84471964D-06
  0.63752251D-06  0.62104767D-06  0.39053144D-06  0.61866741D-07 -0.28511630D-05
 -0.17928878D-05 -0.28402355D-06  0.54748579D-06  0.34427375D-06  0.54538747D-07
  0.37763513D-03  0.36523226D-03  0.11382694D-03 -0.11971919D-05  0.16013409D-05
  0.12085559D-05  0.12993774D-05  0.81708340D-06  0.12943974D-06  0.33636609D-05
  0.21151602D-05  0.33507691D-06  0.14279754D-05  0.89794923D-06  0.14225024D-06
  0.43144511D-01  0.41727492D-01  0.13004637D-01 -0.14100680D-03  0.18860798D-03
  0.14234526D-03 -0.70933054D-05 -0.44604608D-05 -0.70661193D-06  0.52269180D-04
  0.32868263D-04  0.52068851D-05  0.17665854D-04  0.11108763D-04  0.17598147D-05
 -0.58887949D-03 -0.56953861D-03 -0.17750031D-03  0.18439943D-04 -0.24664913D-04
 -0.18614978D-04 -0.41513972D-04 -0.26105100D-04 -0.41354864D-05 -0.19695454D-04
 -0.12385030D-04 -0.19619968D-05  0.46566909D-04  0.29282522D-04  0.46388434D-05
  0.52382052D-04  0.50661640D-04  0.15789020D-04  0.89652597D-04 -0.11991759D-03
 -0.90503595D-04 -0.10560882D-03 -0.66409661D-04 -0.10520406D-04 -0.29058825D-03
 -0.18272969D-03 -0.28947453D-04 -0.55462801D-03 -0.34876497D-03 -0.55250231D-04
  0.10687350D-02  0.10336340D-02  0.32213857D-03 -0.45421286D-05  0.60754639D-05
  0.45852433D-05  0.37165565D-05  0.23370704D-05  0.37023122D-06  0.69637187D-05
  0.43789732D-05  0.69370293D-06  0.58053240D-06  0.36505435D-06  0.57830743D-07
  0.32105331D+00  0.31050878D+00  0.96772024D-01 -0.27690200D-03  0.37037880D-03
  0.27953040D-03  0.17722927D-02  0.11144652D-02  0.17655002D-03 -0.26173211D-02
 -0.16458417D-02 -0.26072898D-03  0.35052712D-02  0.22042086D-02  0.34918368D-03
 -0.15138565D-02 -0.14641361D-02 -0.45630726D-03  0.22037416D-05 -0.29476825D-05
 -0.22246599D-05  0.45529355D-05  0.28630080D-05  0.45354857D-06  0.14800151D-05
  0.93067323D-06  0.14743428D-06  0.23006743D-05  0.14467257D-05  0.22918566D-06
 -0.14218208D-03 -0.13751232D-03 -0.42856582D-04 -0.53427801D-04 -0.51673043D-04
 -0.16104230D-04  0.65856113D-05  0.63693166D-05  0.19850378D-05 -0.13197089D-04
 -0.12763650D-04 -0.39778722D-05 -0.82107523D-04 -0.79410822D-04 -0.24748885D-04
 -0.24188555D-05 -0.23394117D-05 -0.72909246D-06 -0.94714508D-06 -0.91603749D-06
 -0.28548887D-06  0.46546628D-04  0.45017872D-04  0.14030105D-04  0.31213298D-04
  0.30188143D-04  0.94083256D-05 -0.14028580D-02 -0.13567832D-02 -0.42285005D-03
  0.50230451D-06  0.48580706D-06  0.15140484D-06 -0.11447408D-07 -0.11071435D-07
 -0.34504827D-08 -0.42566491D-06 -0.41168457D-06 -0.12830410D-06 -0.12213561D-06
 -0.11812424D-06 -0.36814167D-07
MO    5     MO 0.0        OCC NO =    2.0000002  ORB. ENERGY =    0.000000
  0.65787583D+00  0.63626886D+00  0.19829721D+00 -0.12654956D-02  0.16927025D-02
  0.12775079D-02  0.18982788D-02  0.11936886D-02  0.18910034D-03 -0.42394898D-02
 -0.26659049D-02 -0.42232413D-03  0.36695940D-02  0.23075392D-02  0.36555297D-03
  0.19134170D+01  0.18505736D+01  0.57674297D+00 -0.77582920D-03  0.10377342D-02
  0.78319350D-03 -0.37352983D-02 -0.23488558D-02 -0.37209823D-03  0.93067774D-03
  0.58523514D-03  0.92711079D-04 -0.78129550D-02 -0.49129958D-02 -0.77830108D-03
  0.24347998D+00  0.23548324D+00  0.73389839D-01 -0.16565196D-03  0.22157288D-03
  0.16722436D-03  0.67727252D-03  0.42588713D-03  0.67467677D-04 -0.10383928D-03
 -0.65296924D-04 -0.10344130D-04  0.38461796D-03  0.24185810D-03  0.38314386D-04
  0.46387999D-01  0.44864453D-01  0.13982291D-01 -0.11004811D-03  0.14719824D-03
  0.11109271D-03 -0.38784243D-03 -0.24388573D-03 -0.38635597D-04 -0.13758134D-03
 -0.86514837D-04 -0.13705404D-04 -0.14771740D-03 -0.92888665D-04 -0.14715125D-04
  0.54099290D+00  0.52322478D+00  0.16306631D+00 -0.93505801D-03  0.12507156D-02
  0.94393375D-03  0.10399452D-02  0.65394545D-03  0.10359595D-03 -0.45657031D-03
 -0.28710366D-03 -0.45482044D-04  0.23032350D-02  0.14483360D-02  0.22944075D-03
  0.58072186D-01  0.56164890D-01  0.17504143D-01 -0.20494807D-03  0.27413461D-03
  0.20689348D-03  0.25692683D-03  0.16156248D-03  0.25594212D-04  0.42874057D-03
  0.26960357D-03  0.42709736D-04  0.14277291D-03  0.89779438D-04  0.14222571D-04
  0.30905586D-01  0.29890538D-01  0.93155750D-02  0.81241099D-04 -0.10866653D-03
 -0.82012254D-04 -0.61443117D-03 -0.38637081D-03 -0.61207628D-04 -0.34349575D-04
 -0.21599934D-04 -0.34217925D-05  0.86960816D-04  0.54683294D-04  0.86627526D-05
 -0.66827841D-03 -0.64632978D-03 -0.20143276D-03  0.50326138D-04 -0.67315276D-04
 -0.50803843D-04 -0.15112963D-04 -0.95034366D-05 -0.15055040D-05 -0.78624783D-04
 -0.49441374D-04 -0.78323442D-05 -0.27854147D-04 -0.17515435D-04 -0.27747392D-05
  0.43020433D+00  0.41607489D+00  0.12967237D+00 -0.20131769D-02  0.26927868D-02
  0.20322864D-02  0.13104390D-02  0.82403919D-03  0.13054165D-03  0.32417487D-02
  0.20384986D-02  0.32293242D-03  0.30052269D-02  0.18897673D-02  0.29937090D-03
 -0.79778891D-02 -0.77158670D-02 -0.24046987D-02  0.17090891D-04 -0.22860448D-04
 -0.17253121D-04 -0.26719140D-04 -0.16801712D-04 -0.26616735D-05  0.10200418D-04
  0.64142965D-05  0.10161323D-05  0.12691755D-04  0.79809164D-05  0.12643112D-05
 -0.22601346D+01 -0.21859038D+01 -0.68125074D+00  0.56170196D-02 -0.75132175D-02
 -0.56703373D-02 -0.17461011D-02 -0.10979952D-02 -0.17394089D-03 -0.68364736D-03
 -0.42989581D-03 -0.68102718D-04 -0.39231670D-02 -0.24669927D-02 -0.39081309D-03
 -0.23187022D+00 -0.22425478D+00 -0.69890419D-01  0.70644032D-03 -0.94492100D-03
 -0.71314598D-03 -0.56985420D-05 -0.35833962D-05 -0.56767016D-06 -0.42445603D-03
 -0.26690934D-03 -0.42282925D-04  0.47307822D-03  0.29748428D-03  0.47126508D-04
 -0.24529171D-04 -0.23723546D-04 -0.73935931D-05  0.96320248D-04  0.93156751D-04
  0.29032890D-04  0.14996920D-05  0.14504368D-05  0.45203781D-06  0.16309643D-03
  0.15773977D-03  0.49160595D-04 -0.36110773D-03 -0.34924768D-03 -0.10884525D-03
 -0.33841495D-05 -0.32730021D-05 -0.10200518D-05  0.11178504D-04  0.10811363D-04
  0.33694295D-05 -0.16403121D-03 -0.15864385D-03 -0.49442357D-04 -0.10670473D-03
 -0.10320017D-03 -0.32162985D-04  0.15028945D-03  0.14535341D-03  0.45300309D-04
 -0.28001612D-03 -0.27081940D-03 -0.84402579D-04 -0.30021949D-03 -0.29035922D-03
 -0.90492287D-04 -0.39924751D-04 -0.38613481D-04 -0.12034135D-04 -0.25454881D-04
 -0.24618852D-04 -0.76726210D-05
MO    6     MO 0.0        OCC NO =    2.0000002  ORB. ENERGY =    0.000000
 -0.12241914D+00 -0.11839846D+00 -0.36899628D-01  0.23432184D-03 -0.31342439D-03
 -0.23654606D-03 -0.35807265D-03 -0.22516569D-03 -0.35670028D-04  0.78188356D-03
  0.49166936D-03  0.77888687D-04 -0.67698468D-03 -0.42570614D-03 -0.67439004D-04
 -0.35137911D+00 -0.33983858D+00 -0.10591284D+00  0.14254469D-03 -0.19066504D-03
 -0.14389775D-03  0.68198958D-03  0.42885335D-03  0.67937576D-04 -0.16976221D-03
 -0.10675104D-03 -0.16911158D-04  0.14355896D-02  0.90273727D-03  0.14300875D-03
 -0.46551012D-01 -0.45022112D-01 -0.14031426D-01  0.35493143D-04 -0.47474947D-04
 -0.35830050D-04 -0.11695274D-03 -0.73543018D-04 -0.11650450D-04  0.83563456D-05
  0.52546943D-05  0.83243186D-06 -0.74500404D-04 -0.46847853D-04 -0.74214871D-05
  0.25897492D+00  0.25046927D+00  0.78060331D-01 -0.61293877D-03  0.81985512D-03
  0.61875689D-03 -0.20372836D-02 -0.12810986D-02 -0.20294754D-03 -0.68950937D-03
 -0.43358200D-03 -0.68686673D-04 -0.81831846D-03 -0.51458061D-03 -0.81518214D-04
  0.29488459D+01  0.28519954D+01  0.88884239D+00 -0.50925782D-02  0.68117348D-02
  0.51409178D-02  0.56426464D-02  0.35482475D-02  0.56210201D-03 -0.24568220D-02
 -0.15449156D-02 -0.24474059D-03  0.12526088D-01  0.78767403D-02  0.12478080D-02
  0.29846005D+00  0.28865757D+00  0.89961955D-01 -0.10809889D-02  0.14459099D-02
  0.10912498D-02  0.13861170D-02  0.87162757D-03  0.13808045D-03  0.22802512D-02
  0.14338831D-02  0.22715118D-03  0.70519137D-03  0.44344326D-03  0.70248862D-04
  0.92931149D-02  0.89878961D-02  0.28011346D-02 -0.47039934D-04  0.62919712D-04
  0.47486445D-04  0.13937866D-03  0.87645041D-04  0.13884447D-04 -0.17241587D-05
 -0.10841973D-05 -0.17175506D-06 -0.57329378D-04 -0.36050251D-04 -0.57109655D-05
  0.16640967D-01  0.16094418D-01  0.50159272D-02 -0.75103412D-04  0.10045688D-03
  0.75816306D-04 -0.43458293D-04 -0.27327741D-04 -0.43291733D-05 -0.40539385D-04
 -0.25492253D-04 -0.40384012D-05  0.40369434D-04  0.25385383D-04  0.40214712D-05
 -0.75673574D-01 -0.73188187D-01 -0.22809561D-01  0.36588325D-03 -0.48939840D-03
 -0.36935628D-03 -0.22749228D-03 -0.14305325D-03 -0.22662038D-04 -0.59544206D-03
 -0.37442994D-03 -0.59315994D-04 -0.55006116D-03 -0.34589322D-03 -0.54795297D-04
 -0.44753651D-01 -0.43283783D-01 -0.13489665D-01  0.12689550D-03 -0.16973298D-03
 -0.12810001D-03 -0.30245093D-03 -0.19018926D-03 -0.30129175D-04  0.14014835D-03
  0.88129041D-04  0.13961121D-04  0.19373695D-04  0.12182699D-04  0.19299442D-05
  0.41687777D+00  0.40318603D+00  0.12565547D+00 -0.10351043D-02  0.13845356D-02
  0.10449296D-02  0.32192925D-03  0.20243775D-03  0.32069541D-04  0.12928525D-03
  0.81298036D-04  0.12878975D-04  0.72278422D-03  0.45450611D-03  0.72001405D-04
 -0.12470196D+01 -0.12060631D+01 -0.37587718D+00  0.38056362D-02 -0.50903458D-02
 -0.38417599D-02 -0.18504258D-04 -0.11635974D-04 -0.18433338D-05 -0.23277451D-02
 -0.14637486D-02 -0.23188237D-03  0.25707458D-02  0.16165539D-02  0.25608930D-03
 -0.21202812D-04 -0.20506437D-04 -0.63909607D-05 -0.30464304D-04 -0.29463748D-04
 -0.91825634D-05  0.15495384D-04  0.14986461D-04  0.46706253D-05 -0.69954683D-04
 -0.67657124D-04 -0.21085770D-04  0.63123767D-04  0.61050559D-04  0.19026793D-04
 -0.55939007D-06 -0.54101772D-06 -0.16861159D-06  0.99706507D-04  0.96431793D-04
  0.30053578D-04  0.31896178D-04  0.30848595D-04  0.96141596D-05  0.23359571D-04
  0.22592360D-04  0.70410517D-05 -0.27211950D-04 -0.26318214D-04 -0.82022376D-05
 -0.15284336D-02 -0.14782344D-02 -0.46070110D-03 -0.16370642D-02 -0.15832973D-02
 -0.49344460D-03 -0.20671802D-03 -0.19992867D-03 -0.62309035D-04 -0.13080104D-03
 -0.12650507D-03 -0.39426105D-04
MO    7     MO 0.0        OCC NO =    2.0000001  ORB. ENERGY =    0.000000
 -0.44204286D-02 -0.42752461D-02 -0.13324075D-02  0.52618587D-05 -0.70381610D-05
 -0.53118051D-05  0.14223906D-05  0.89443738D-06  0.14169391D-06  0.77925304D-05
  0.49001522D-05  0.77626644D-06 -0.23322956D-04 -0.14666101D-04 -0.23233568D-05
 -0.51161850D-02 -0.49481514D-02 -0.15421227D-02  0.35875542D-05 -0.47986436D-05