 opt arginine m062x
GAUSSIAN             47 MOL ORBITALS    222 PRIMITIVES       26 NUCLEI
  O    1    (CENTRE  1)   4.38946792  3.88908447 -0.67525777  CHARGE =  8.0
  O    2    (CENTRE  2)   6.00692829  1.22212225  2.41686543  CHARGE =  8.0
  N    3    (CENTRE  3)   5.66047543 -3.07695962 -0.76871556  CHARGE =  7.0
  N    4    (CENTRE  4)  -3.53966944  0.53193858  0.53888493  CHARGE =  7.0
  N    5    (CENTRE  5)  -7.14265135  2.93563249 -0.66068136  CHARGE =  7.0
  N    6    (CENTRE  6)  -7.62791517 -1.57831557 -0.18854048  CHARGE =  7.0
  C    7    (CENTRE  7)   1.43476674 -1.05885365 -1.60416425  CHARGE =  6.0
  C    8    (CENTRE  8)   0.39182602 -2.03637098  0.94201519  CHARGE =  6.0
  C    9    (CENTRE  9)   4.35184724 -0.67895993 -1.55764893  CHARGE =  6.0
  C   10    (CENTRE 10)  -2.53398428 -2.11286599  0.90830116  CHARGE =  6.0
  C   11    (CENTRE 11)   5.03703651  1.51498873  0.30510450  CHARGE =  6.0
  C   12    (CENTRE 12)  -5.96056184  0.56173428  0.05250848  CHARGE =  6.0
  H   13    (CENTRE 13)   0.52120356  0.75120411 -2.05499145  CHARGE =  1.0
  H   14    (CENTRE 14)   0.97523121 -2.41607954 -3.10469828  CHARGE =  1.0
  H   15    (CENTRE 15)   1.12969244 -3.94018667  1.31353715  CHARGE =  1.0
  H   16    (CENTRE 16)   1.01391944 -0.78841819  2.47962918  CHARGE =  1.0
  H   17    (CENTRE 17)   4.98983479 -0.14950575 -3.46881029  CHARGE =  1.0
  H   18    (CENTRE 18)  -3.18931193 -3.37676110 -0.61686916  CHARGE =  1.0
  H   19    (CENTRE 19)  -3.22027497 -2.90185494  2.71663115  CHARGE =  1.0
  H   20    (CENTRE 20)   5.65880464 -2.96974306  1.22553511  CHARGE =  1.0
  H   21    (CENTRE 21)   7.58410904 -2.76328091 -1.18702999  CHARGE =  1.0
  H   22    (CENTRE 22)   4.87782150  5.08449395  0.75115198  CHARGE =  1.0
  H   23    (CENTRE 23)  -5.79053914  4.34798383 -0.35603632  CHARGE =  1.0
  H   24    (CENTRE 24)  -8.66229178  3.31966906  0.55460459  CHARGE =  1.0
  H   25    (CENTRE 25)  -9.51663043 -1.01310229 -0.15346671  CHARGE =  1.0
  H   26    (CENTRE 26)  -7.31999676 -2.89817816  1.24462221  CHARGE =  1.0
CENTRE ASSIGNMENTS    1  1  1  1  1  1  1  1  1  1  1  1  1  1  1  2  2  2  2  2
CENTRE ASSIGNMENTS    2  2  2  2  2  2  2  2  2  2  3  3  3  3  3  3  3  3  3  3
CENTRE ASSIGNMENTS    3  3  3  3  3  4  4  4  4  4  4  4  4  4  4  4  4  4  4  4
CENTRE ASSIGNMENTS    5  5  5  5  5  5  5  5  5  5  5  5  5  5  5  6  6  6  6  6
CENTRE ASSIGNMENTS    6  6  6  6  6  6  6  6  6  6  7  7  7  7  7  7  7  7  7  7
CENTRE ASSIGNMENTS    7  7  7  7  7  8  8  8  8  8  8  8  8  8  8  8  8  8  8  8
CENTRE ASSIGNMENTS    9  9  9  9  9  9  9  9  9  9  9  9  9  9  9 10 10 10 10 10
CENTRE ASSIGNMENTS   10 10 10 10 10 10 10 10 10 10 11 11 11 11 11 11 11 11 11 11
CENTRE ASSIGNMENTS   11 11 11 11 11 12 12 12 12 12 12 12 12 12 12 12 12 12 12 12
CENTRE ASSIGNMENTS   13 13 13 14 14 14 15 15 15 16 16 16 17 17 17 18 18 18 19 19
CENTRE ASSIGNMENTS   19 20 20 20 21 21 21 22 22 22 23 23 23 24 24 24 25 25 25 26
CENTRE ASSIGNMENTS   26 26
TYPE ASSIGNMENTS      1  1  1  1  1  1  2  2  2  3  3  3  4  4  4  1  1  1  1  1
TYPE ASSIGNMENTS      1  2  2  2  3  3  3  4  4  4  1  1  1  1  1  1  2  2  2  3
TYPE ASSIGNMENTS      3  3  4  4  4  1  1  1  1  1  1  2  2  2  3  3  3  4  4  4
TYPE ASSIGNMENTS      1  1  1  1  1  1  2  2  2  3  3  3  4  4  4  1  1  1  1  1
TYPE ASSIGNMENTS      1  2  2  2  3  3  3  4  4  4  1  1  1  1  1  1  2  2  2  3
TYPE ASSIGNMENTS      3  3  4  4  4  1  1  1  1  1  1  2  2  2  3  3  3  4  4  4
TYPE ASSIGNMENTS      1  1  1  1  1  1  2  2  2  3  3  3  4  4  4  1  1  1  1  1
TYPE ASSIGNMENTS      1  2  2  2  3  3  3  4  4  4  1  1  1  1  1  1  2  2  2  3
TYPE ASSIGNMENTS      3  3  4  4  4  1  1  1  1  1  1  2  2  2  3  3  3  4  4  4
TYPE ASSIGNMENTS      1  1  1  1  1  1  1  1  1  1  1  1  1  1  1  1  1  1  1  1
TYPE ASSIGNMENTS      1  1  1  1  1  1  1  1  1  1  1  1  1  1  1  1  1  1  1  1
TYPE ASSIGNMENTS      1  1
EXPONENTS  0.1307093D+03 0.2380887D+02 0.6443608D+01 0.5033151D+01 0.1169596D+01
EXPONENTS  0.3803890D+00 0.5033151D+01 0.1169596D+01 0.3803890D+00 0.5033151D+01
EXPONENTS  0.1169596D+01 0.3803890D+00 0.5033151D+01 0.1169596D+01 0.3803890D+00
EXPONENTS  0.1307093D+03 0.2380887D+02 0.6443608D+01 0.5033151D+01 0.1169596D+01
EXPONENTS  0.3803890D+00 0.5033151D+01 0.1169596D+01 0.3803890D+00 0.5033151D+01
EXPONENTS  0.1169596D+01 0.3803890D+00 0.5033151D+01 0.1169596D+01 0.3803890D+00
EXPONENTS  0.9910617D+02 0.1805231D+02 0.4885660D+01 0.3780456D+01 0.8784966D+00
EXPONENTS  0.2857144D+00 0.3780456D+01 0.8784966D+00 0.2857144D+00 0.3780456D+01
EXPONENTS  0.8784966D+00 0.2857144D+00 0.3780456D+01 0.8784966D+00 0.2857144D+00
EXPONENTS  0.9910617D+02 0.1805231D+02 0.4885660D+01 0.3780456D+01 0.8784966D+00
EXPONENTS  0.2857144D+00 0.3780456D+01 0.8784966D+00 0.2857144D+00 0.3780456D+01
EXPONENTS  0.8784966D+00 0.2857144D+00 0.3780456D+01 0.8784966D+00 0.2857144D+00
EXPONENTS  0.9910617D+02 0.1805231D+02 0.4885660D+01 0.3780456D+01 0.8784966D+00
EXPONENTS  0.2857144D+00 0.3780456D+01 0.8784966D+00 0.2857144D+00 0.3780456D+01
EXPONENTS  0.8784966D+00 0.2857144D+00 0.3780456D+01 0.8784966D+00 0.2857144D+00
EXPONENTS  0.9910617D+02 0.1805231D+02 0.4885660D+01 0.3780456D+01 0.8784966D+00
EXPONENTS  0.2857144D+00 0.3780456D+01 0.8784966D+00 0.2857144D+00 0.3780456D+01
EXPONENTS  0.8784966D+00 0.2857144D+00 0.3780456D+01 0.8784966D+00 0.2857144D+00
EXPONENTS  0.7161684D+02 0.1304510D+02 0.3530512D+01 0.2941249D+01 0.6834831D+00
EXPONENTS  0.2222899D+00 0.2941249D+01 0.6834831D+00 0.2222899D+00 0.2941249D+01
EXPONENTS  0.6834831D+00 0.2222899D+00 0.2941249D+01 0.6834831D+00 0.2222899D+00
EXPONENTS  0.7161684D+02 0.1304510D+02 0.3530512D+01 0.2941249D+01 0.6834831D+00
EXPONENTS  0.2222899D+00 0.2941249D+01 0.6834831D+00 0.2222899D+00 0.2941249D+01
EXPONENTS  0.6834831D+00 0.2222899D+00 0.2941249D+01 0.6834831D+00 0.2222899D+00
EXPONENTS  0.7161684D+02 0.1304510D+02 0.3530512D+01 0.2941249D+01 0.6834831D+00
EXPONENTS  0.2222899D+00 0.2941249D+01 0.6834831D+00 0.2222899D+00 0.2941249D+01
EXPONENTS  0.6834831D+00 0.2222899D+00 0.2941249D+01 0.6834831D+00 0.2222899D+00
EXPONENTS  0.7161684D+02 0.1304510D+02 0.3530512D+01 0.2941249D+01 0.6834831D+00
EXPONENTS  0.2222899D+00 0.2941249D+01 0.6834831D+00 0.2222899D+00 0.2941249D+01
EXPONENTS  0.6834831D+00 0.2222899D+00 0.2941249D+01 0.6834831D+00 0.2222899D+00
EXPONENTS  0.7161684D+02 0.1304510D+02 0.3530512D+01 0.2941249D+01 0.6834831D+00
EXPONENTS  0.2222899D+00 0.2941249D+01 0.6834831D+00 0.2222899D+00 0.2941249D+01
EXPONENTS  0.6834831D+00 0.2222899D+00 0.2941249D+01 0.6834831D+00 0.2222899D+00
EXPONENTS  0.7161684D+02 0.1304510D+02 0.3530512D+01 0.2941249D+01 0.6834831D+00
EXPONENTS  0.2222899D+00 0.2941249D+01 0.6834831D+00 0.2222899D+00 0.2941249D+01
EXPONENTS  0.6834831D+00 0.2222899D+00 0.2941249D+01 0.6834831D+00 0.2222899D+00
EXPONENTS  0.3425251D+01 0.6239137D+00 0.1688554D+00 0.3425251D+01 0.6239137D+00
EXPONENTS  0.1688554D+00 0.3425251D+01 0.6239137D+00 0.1688554D+00 0.3425251D+01
EXPONENTS  0.6239137D+00 0.1688554D+00 0.3425251D+01 0.6239137D+00 0.1688554D+00
EXPONENTS  0.3425251D+01 0.6239137D+00 0.1688554D+00 0.3425251D+01 0.6239137D+00
EXPONENTS  0.1688554D+00 0.3425251D+01 0.6239137D+00 0.1688554D+00 0.3425251D+01
EXPONENTS  0.6239137D+00 0.1688554D+00 0.3425251D+01 0.6239137D+00 0.1688554D+00
EXPONENTS  0.3425251D+01 0.6239137D+00 0.1688554D+00 0.3425251D+01 0.6239137D+00
EXPONENTS  0.1688554D+00 0.3425251D+01 0.6239137D+00 0.1688554D+00 0.3425251D+01
EXPONENTS  0.6239137D+00 0.1688554D+00
MO    1     MO 0.0        OCC NO =    2.0000000  ORB. ENERGY =  -19.424865
  0.42264882D+01  0.40876754D+01  0.12739499D+01 -0.63874901D-02  0.85437840D-02
  0.64481212D-02  0.28088891D-02  0.17663049D-02  0.27981237D-03 -0.19623247D-02
 -0.12339624D-02 -0.19548038D-03  0.61542789D-02  0.38699757D-02  0.61306918D-03
  0.35394859D-02  0.34232367D-02  0.10668733D-02 -0.51308015D-04  0.68628615D-04
  0.51795040D-04 -0.80695170D-04 -0.50743288D-04 -0.80385894D-05  0.10432196D-02
  0.65600448D-03  0.10392213D-03  0.32767888D-04  0.20605327D-04  0.32642300D-05
  0.64591873D-05  0.62470447D-05  0.19469310D-05 -0.19191377D-05  0.25670018D-05
  0.19373545D-05 -0.24387073D-04 -0.15335246D-04 -0.24293607D-05 -0.59141897D-04
 -0.37190012D-04 -0.58915227D-05 -0.21125086D-04 -0.13284021D-04 -0.21044121D-05
 -0.14677455D-05 -0.14195395D-05 -0.44240846D-06 -0.54803589D-06  0.73304227D-06
  0.55323794D-06  0.38888973D-05  0.24454430D-05  0.38739925D-06  0.10168588D-05
  0.63942811D-06  0.10129615D-06 -0.29157369D-05 -0.18334936D-05 -0.29045619D-06
  0.38134247D-07  0.36881784D-07  0.11494441D-07  0.19972272D-07 -0.26714528D-07
 -0.20161853D-07 -0.11528468D-06 -0.72494103D-07 -0.11484284D-07 -0.15464346D-06
 -0.97243956D-07 -0.15405076D-07 -0.49965458D-07 -0.31419621D-07 -0.49773958D-08
  0.14431626D-07  0.13957640D-07  0.43499868D-08  0.11342749D-07 -0.15171843D-07
 -0.11450417D-07 -0.33490831D-07 -0.21059933D-07 -0.33362472D-08  0.73251847D-08
  0.46062727D-08  0.72971099D-09 -0.50499466D-07 -0.31755420D-07 -0.50305920D-08
 -0.38857584D-04 -0.37581363D-04 -0.11712469D-04 -0.14637568D-04  0.19578929D-04
  0.14776510D-04 -0.19676336D-04 -0.12373008D-04 -0.19600923D-05  0.55973080D-04
  0.35197375D-04  0.55758555D-05  0.28428404D-04  0.17876543D-04  0.28319448D-05
  0.63526225D-05  0.61439799D-05  0.19148102D-05  0.49528545D-05 -0.66248431D-05
 -0.49998679D-05 -0.56351702D-05 -0.35435462D-05 -0.56135726D-06 -0.11622385D-05
 -0.73084677D-06 -0.11577841D-06 -0.17333719D-05 -0.10899908D-05 -0.17267285D-06
 -0.58274716D-04 -0.56360768D-04 -0.17565190D-04 -0.46780776D-04  0.62573068D-04
  0.47224828D-04 -0.40119756D-05 -0.25228379D-05 -0.39965991D-06  0.26834620D-03
  0.16874329D-03  0.26731773D-04 -0.75099264D-04 -0.47224432D-04 -0.74811435D-05
 -0.10349925D-06 -0.10009997D-06 -0.31196789D-07 -0.18530199D-06  0.24785638D-06
  0.18706091D-06  0.61829088D-06  0.38879789D-06  0.61592119D-07 -0.55103918D-06
 -0.34650822D-06 -0.54892724D-07 -0.45324411D-06 -0.28501206D-06 -0.45150699D-07
  0.14601468D-02  0.14121904D-02  0.44011806D-03  0.73266488D-03 -0.97999846D-03
 -0.73961946D-03  0.10417183D-02  0.65506041D-03  0.10377257D-03 -0.36293969D-02
 -0.22822622D-02 -0.36154867D-03  0.16168479D-02  0.10167174D-02  0.16106511D-03
 -0.91780313D-07 -0.88765923D-07 -0.27664461D-07 -0.70443296D-07  0.94223600D-07
  0.71111956D-07  0.28073800D-06  0.17653559D-06  0.27966204D-07 -0.15509696D-06
 -0.97529132D-07 -0.15450253D-07  0.30332063D-06  0.19073615D-06  0.30215811D-07
 -0.40578032D-04 -0.39245305D-04 -0.12231048D-04  0.33558244D-05  0.32456072D-05
  0.10115140D-05  0.20675507D-05  0.19996451D-05  0.62320202D-06  0.10535329D-04
  0.10189312D-04  0.31755634D-05 -0.35259345D-04 -0.34101304D-04 -0.10627887D-04
 -0.68036663D-07 -0.65802098D-07 -0.20507640D-07 -0.13095314D-06 -0.12665218D-06
 -0.39471952D-07 -0.24434170D-04 -0.23631666D-04 -0.73649580D-05 -0.23246973D-06
 -0.22483460D-06 -0.70071125D-07 -0.16141188D-02 -0.15611054D-02 -0.48652838D-03
  0.84865102D-07  0.82077832D-07  0.25580075D-07 -0.28822914D-08 -0.27876267D-08
 -0.86878149D-09  0.54292816D-10  0.52509648D-10  0.16364964D-10  0.17301028D-07
  0.16732801D-07  0.52148833D-08
MO    2     MO 0.0        OCC NO =    2.0000000  ORB. ENERGY =  -19.369584
 -0.38561449D-02 -0.37294954D-02 -0.11623208D-02 -0.59422514D-04  0.79482414D-04
  0.59986563D-04  0.33727335D-03  0.21208653D-03  0.33598070D-04  0.17844442D-03
  0.11221064D-03  0.17776051D-04  0.79539019D-03  0.50016269D-03  0.79234174D-04
  0.42267490D+01  0.40879276D+01  0.12740285D+01 -0.64150183D-02  0.85806052D-02
  0.64759108D-02 -0.39791944D-02 -0.25022242D-02 -0.39639436D-03  0.12088433D-02
  0.76015309D-03  0.12042102D-03 -0.86574158D-02 -0.54440154D-02 -0.86242350D-03
 -0.55012679D-04 -0.53205868D-04 -0.16581945D-04 -0.26002046D-04  0.34779837D-04
  0.26248862D-04  0.66981146D-04  0.42119542D-04  0.66724431D-05 -0.29936503D-04
 -0.18824876D-04 -0.29821767D-05  0.23361044D-03  0.14690052D-03  0.23271510D-04
 -0.33783297D-06 -0.32673734D-06 -0.10182976D-06 -0.19390603D-06  0.25936497D-06
  0.19574661D-06  0.51876634D-07  0.32621420D-07  0.51677809D-08 -0.30066945D-06
 -0.18906902D-06 -0.29951709D-07 -0.27732534D-06 -0.17438962D-06 -0.27626245D-07
  0.16721766D-08  0.16172564D-08  0.50402819D-09  0.20937162D-09 -0.28005145D-09
 -0.21135901D-09  0.24721774D-08  0.15545715D-08  0.24627024D-09 -0.34581660D-07
 -0.21745876D-07 -0.34449121D-08 -0.37889321D-08 -0.23825822D-08 -0.37744104D-09
 -0.57502688D-09 -0.55614097D-09 -0.17332485D-09  0.23400343D-08 -0.31299850D-08
 -0.23622463D-08  0.21471684D-07  0.13501971D-07  0.21389390D-08 -0.20475211D-07
 -0.12875362D-07 -0.20396737D-08 -0.83778924D-08 -0.52682436D-08 -0.83457830D-09
 -0.14746368D-04 -0.14262045D-04 -0.44448565D-05 -0.41886286D-05  0.56026292D-05
  0.42283878D-05  0.17394216D-04  0.10937950D-04  0.17327551D-05  0.20693520D-04
  0.13012641D-04  0.20614209D-05  0.35212577D-05  0.22142613D-05  0.35077620D-06
 -0.19067864D-04 -0.18441607D-04 -0.57474435D-05 -0.52937730D-05  0.70808490D-05
  0.53440224D-05  0.31622536D-04  0.19885099D-04  0.31501338D-05  0.30298544D-04
  0.19052538D-04  0.30182421D-05  0.11029707D-04  0.69357755D-05  0.10987434D-05
 -0.55341328D-04 -0.53523724D-04 -0.16681007D-04 -0.25456190D-04  0.34049711D-04
  0.25697825D-04  0.17344829D-03  0.10906894D-03  0.17278353D-04 -0.19676860D-03
 -0.12373337D-03 -0.19601445D-04  0.32864651D-03  0.20666174D-03  0.32738692D-04
 -0.10767410D-05 -0.10413770D-05 -0.32455173D-06 -0.85663281D-06  0.11458156D-05
  0.86476412D-06  0.33225794D-05  0.20893271D-05  0.33098451D-06 -0.31448028D-05
 -0.19775364D-05 -0.31327499D-06 -0.16795357D-05 -0.10561371D-05 -0.16730987D-06
  0.16450172D-02  0.15909890D-02  0.49584178D-03  0.11873931D-02 -0.15882342D-02
 -0.11986641D-02 -0.24230147D-02 -0.15236566D-02 -0.24137281D-03  0.70974524D-03
  0.44630685D-03  0.70702503D-04 -0.52804624D-02 -0.33204965D-02 -0.52602243D-03
 -0.13285283D-07 -0.12848947D-07 -0.40044556D-08  0.10959911D-07 -0.14659766D-07
 -0.11063944D-07 -0.65713187D-07 -0.41322215D-07 -0.65461332D-08 -0.70835927D-07
 -0.44543532D-07 -0.70564438D-08  0.26151705D-07  0.16444894D-07  0.26051475D-08
 -0.79423473D-05 -0.76814925D-05 -0.23939857D-05  0.33109389D-05  0.32021960D-05
  0.99798461D-06  0.34567570D-05  0.33432249D-05  0.10419372D-05 -0.54721011D-05
 -0.52923780D-05 -0.16494031D-05  0.77706776D-05  0.75154611D-05  0.23422410D-05
 -0.21846824D-06 -0.21129297D-06 -0.65850789D-07  0.37922102D-08  0.36676606D-08
  0.11430496D-08 -0.11986229D-03 -0.11592559D-03 -0.36128943D-04 -0.24410009D-05
 -0.23608298D-05 -0.73576753D-06 -0.34278669D-04 -0.33152836D-04 -0.10332291D-04
  0.15900638D-07  0.15378404D-07  0.47927769D-08 -0.36527921D-09 -0.35328215D-09
 -0.11010261D-09  0.10024926D-08  0.96956722D-09  0.30217175D-09  0.10038204D-07
  0.97085135D-08  0.30257196D-08
MO    3     MO 0.0        OCC NO =    2.0000000  ORB. ENERGY =  -14.580450
  0.27663881D-07  0.26755301D-07  0.83384587D-08  0.59279256D-08 -0.79290794D-08
 -0.59841945D-08  0.48947391D-07  0.30779433D-07  0.48759793D-08  0.19955739D-07
  0.12548704D-07  0.19879256D-08  0.23571122D-07  0.14822154D-07  0.23480782D-08
 -0.23343658D-09 -0.22576970D-09 -0.70362555D-10  0.12545890D-08 -0.16781141D-08
 -0.12664978D-08 -0.14959990D-07 -0.94072434D-08 -0.14902654D-08 -0.63286144D-08
 -0.39796026D-08 -0.63043591D-09  0.18896265D-07  0.11882478D-07  0.18823842D-08
 -0.61705300D-06 -0.59678680D-06 -0.18599238D-06  0.15893749D-07 -0.21259174D-07
 -0.16044616D-07 -0.97987102D-10 -0.61616919D-10 -0.97611552D-11 -0.10759395D-07
 -0.67657963D-08 -0.10718158D-08 -0.21347636D-07 -0.13423967D-07 -0.21265818D-08
  0.13308732D-02  0.12871627D-02  0.40115238D-03 -0.31263442D-04  0.41817380D-04
  0.31560200D-04 -0.71938722D-04 -0.45236999D-04 -0.71663007D-05 -0.56051769D-03
 -0.35246856D-03 -0.55836942D-04  0.53086166D-04  0.33382006D-04  0.52882705D-05
  0.78636123D-02  0.76053435D-02  0.23702534D-02 -0.81547221D-04  0.10907600D-03
  0.82321281D-04 -0.12313356D-03 -0.77429685D-04 -0.12266163D-04 -0.39079696D-03
 -0.24574361D-03 -0.38929917D-04  0.32406544D-05  0.20378105D-05  0.32282341D-06
  0.34307696D+01  0.33180910D+01  0.10341040D+01 -0.64426335D-02  0.86175428D-02
  0.65037881D-02 -0.77254940D-03 -0.48579979D-03 -0.76958849D-04  0.23810815D-02
  0.14972879D-02  0.23719557D-03  0.43942687D-02  0.27632341D-02  0.43774270D-03
  0.10361513D-05  0.10021204D-05  0.31231717D-06  0.87138796D-06 -0.11655518D-05
 -0.87965933D-06 -0.52225192D-06 -0.32840602D-06 -0.52025032D-07 -0.46569511D-06
 -0.29284158D-06 -0.46391026D-07 -0.28743583D-06 -0.18074736D-06 -0.28633419D-07
  0.18284881D-05  0.17684341D-05  0.55114366D-06 -0.24484404D-06  0.32749868D-06
  0.24716814D-06  0.16999562D-05  0.10689781D-05  0.16934409D-06  0.57667830D-05
  0.36263079D-05  0.57446809D-06 -0.70895963D-05 -0.44581284D-05 -0.70624244D-06
 -0.14532073D-06 -0.14054788D-06 -0.43802635D-07 -0.11898140D-06  0.15914724D-06
  0.12011080D-06 -0.46835878D-06 -0.29451657D-06 -0.46656372D-07  0.50764066D-07
  0.31921807D-07  0.50569506D-08  0.26046031D-07  0.16378443D-07  0.25946205D-08
  0.10791271D-04  0.10436847D-04  0.32527094D-05  0.68498825D-05 -0.91622712D-05
 -0.69149027D-05 -0.12916719D-04 -0.81223795D-05 -0.12867214D-05 -0.86333485D-04
 -0.54288812D-04 -0.86002600D-05 -0.65600846D-04 -0.41251573D-04 -0.65349422D-05
  0.14689295D-07  0.14206847D-07  0.44276537D-08  0.11088499D-07 -0.14831764D-07
 -0.11193753D-07  0.39713496D-07  0.24972912D-07  0.39561288D-08  0.31671400D-07
  0.19915826D-07  0.31550014D-08  0.44522008D-07  0.27996633D-07  0.44351371D-08
  0.14472268D-02  0.13996947D-02  0.43622371D-03  0.94131901D-03 -0.12590902D-02
 -0.95025417D-03  0.28554298D-02  0.17955709D-02  0.28444860D-03  0.34504116D-02
  0.21697114D-02  0.34371874D-03  0.32174707D-03  0.20232319D-03  0.32051393D-04
  0.96509815D-06  0.93340092D-06  0.29090030D-06  0.14267325D-05  0.13798735D-05
  0.43004631D-06 -0.58199996D-06 -0.56288503D-06 -0.17542668D-06 -0.38677840D-06
 -0.37407523D-06 -0.11658291D-06 -0.49765305D-07 -0.48130836D-07 -0.15000279D-07
 -0.45149169D-04 -0.43666311D-04 -0.13608882D-04  0.80756818D-04  0.78104479D-04
  0.24341755D-04  0.46459111D-07  0.44933229D-07  0.14003725D-07  0.46456834D-08
  0.44931027D-08  0.14003039D-08 -0.52120439D-09 -0.50408619D-09 -0.15710165D-09
 -0.26024567D-04 -0.25169828D-04 -0.78443361D-05  0.43895110D-04  0.42453439D-04
  0.13230883D-04 -0.19711899D-02 -0.19064491D-02 -0.59415690D-03 -0.19700358D-02
 -0.19053328D-02 -0.59380902D-03
MO    4     MO 0.0        OCC NO =    2.0000000  ORB. ENERGY =  -14.571397
  0.90809837D-07  0.87827321D-07  0.27371940D-07  0.20681464D-07 -0.27663129D-07
 -0.20877776D-07  0.13829759D-06  0.86965236D-07  0.13776754D-07  0.26123693D-07
  0.16427279D-07  0.26023571D-08  0.72939363D-07  0.45866229D-07  0.72659812D-08
  0.57225387D-08  0.55345903D-08  0.17248900D-08  0.22878184D-08 -0.30601420D-08
 -0.23095348D-08 -0.82166209D-08 -0.51668317D-08 -0.81851296D-09  0.87756703D-09
  0.55183770D-09  0.87420363D-10  0.11472167D-07  0.72140067D-08  0.11428199D-08
 -0.10119872D-05 -0.97874999D-06 -0.30503362D-06  0.11665396D-08 -0.15603410D-08
 -0.11776126D-08  0.22594044D-06  0.14207741D-06  0.22507449D-07  0.54328776D-07
  0.34163392D-07  0.54120553D-08  0.21976037D-07  0.13819122D-07  0.21891811D-08
  0.18296821D-02  0.17695888D-02  0.55150355D-03 -0.88235502D-04  0.11802211D-03
  0.89073049D-04 -0.23485007D-03 -0.14768003D-03 -0.23394998D-04  0.54089476D-03
  0.34012914D-03  0.53882170D-04 -0.13715787D-03 -0.86248549D-04 -0.13663219D-04
  0.34308348D+01  0.33181541D+01  0.10341237D+01 -0.64052646D-02  0.85675589D-02
  0.64660645D-02  0.18399386D-02  0.11570028D-02  0.18328868D-03 -0.50048026D-04
 -0.31471541D-04 -0.49856209D-05  0.53747516D-02  0.33797880D-02  0.53541521D-03
 -0.80246323D-02 -0.77610750D-02 -0.24187881D-02 -0.51994720D-04  0.69547138D-04
  0.52488262D-04 -0.12603776D-03 -0.79255929D-04 -0.12555471D-04  0.33795335D-03
  0.21251414D-03  0.33665810D-04 -0.15473419D-04 -0.97301010D-05 -0.15414115D-05
  0.16864326D-05  0.16310442D-05  0.50832523D-06  0.92614689D-06 -0.12387963D-05
 -0.93493803D-06  0.11537984D-05  0.72553943D-06  0.11493763D-06 -0.37224820D-05
 -0.23407966D-05 -0.37082150D-06  0.69301961D-06  0.43578933D-06  0.69036351D-07
  0.45864352D-05  0.44358005D-05  0.13824453D-05  0.35749545D-05 -0.47817904D-05
 -0.36088886D-05  0.14342827D-04  0.90191548D-05  0.14287856D-05  0.17294574D-05
  0.10875293D-05  0.17228291D-06 -0.13226249D-05 -0.83170203D-06 -0.13175558D-06
 -0.29006597D-07 -0.28053918D-07 -0.87431807D-08 -0.46457931D-07  0.62141236D-07
  0.46898918D-07 -0.17459033D-06 -0.10978708D-06 -0.17392118D-07  0.18109259D-06
  0.11387588D-06  0.18039852D-07 -0.19189271D-06 -0.12066728D-06 -0.19115725D-07
  0.22388581D-04  0.21653261D-04  0.67483756D-05  0.68273942D-05 -0.91321913D-05
 -0.68922010D-05  0.93504223D-04  0.58797965D-04  0.93145855D-05  0.97538018D-05
  0.61334523D-05  0.97164190D-06  0.95477143D-05  0.60038590D-05  0.95111213D-06
  0.58579479D-07  0.56655522D-07  0.17657052D-07  0.23842300D-07 -0.31891002D-07
 -0.24068615D-07  0.14047452D-06  0.88334146D-07  0.13993613D-07 -0.26931328D-08
 -0.16935142D-08 -0.26828110D-09  0.35158707D-07  0.22108739D-07  0.35023957D-08
  0.14573383D-02  0.14094741D-02  0.43927152D-03  0.93815784D-03 -0.12548619D-02
 -0.94706300D-03  0.18277135D-02  0.11493153D-02  0.18207086D-03 -0.38816845D-02
 -0.24409074D-02 -0.38668073D-03  0.10608279D-02  0.66707702D-03  0.10567621D-03
  0.30851237D-05  0.29837973D-05  0.92991930D-06  0.13170731D-06  0.12738158D-06
  0.39699274D-07  0.54048484D-06  0.52273341D-06  0.16291317D-06  0.20907600D-06
  0.20220921D-06  0.63019778D-07 -0.61002361D-07 -0.58998828D-07 -0.18387358D-07
 -0.12932334D-05 -0.12507591D-05 -0.38980697D-06  0.17487607D-06  0.16913252D-06
  0.52711218D-07 -0.59799295D-07 -0.57835275D-07 -0.18024729D-07 -0.67139533D-08
 -0.64934434D-08 -0.20237227D-08  0.16711667D-07  0.16162797D-07  0.50372379D-08
 -0.19657197D-02 -0.19011586D-02 -0.59250808D-03 -0.19593746D-02 -0.18950218D-02
 -0.59059552D-03 -0.24012886D-04 -0.23224218D-04 -0.72379742D-05 -0.33847327D-05
 -0.32735662D-05 -0.10202276D-05
MO    5     MO 0.0        OCC NO =    2.0000000  ORB. ENERGY =  -14.536290
  0.25631990D-04  0.24790144D-04  0.77260052D-05  0.47131404D-05 -0.63042061D-05
 -0.47578784D-05  0.33961927D-04  0.21356171D-04  0.33831763D-05  0.54299405D-04
  0.34144923D-04  0.54091294D-05  0.72786613D-04  0.45770176D-04  0.72507648D-05
 -0.12626302D-03 -0.12211609D-03 -0.38058252D-04 -0.25829591D-04  0.34549165D-04
  0.26074770D-04  0.27590997D-04  0.17349959D-04  0.27485250D-05 -0.28687094D-03
 -0.18039215D-03 -0.28577147D-04  0.74936905D-04  0.47122337D-04  0.74649698D-05
  0.34310630D+01  0.33183747D+01  0.10341925D+01 -0.62855598D-02  0.84074440D-02
  0.63452234D-02  0.26790748D-02  0.16846741D-02  0.26688068D-03  0.52046440D-02
  0.32728198D-02  0.51846965D-03  0.26216998D-02  0.16485952D-02  0.26116518D-03
  0.61091636D-04  0.59085170D-04  0.18414267D-04 -0.68388557D-06  0.91475220D-06
  0.69037713D-06  0.24092195D-05  0.15149819D-05  0.23999858D-06 -0.46977472D-06
 -0.29540695D-06 -0.46797424D-07 -0.27677216D-05 -0.17404176D-05 -0.27571139D-06
  0.10414540D-05  0.10072489D-05  0.31391550D-06  0.71351347D-08 -0.95438191D-08
 -0.72028626D-08 -0.37490232D-07 -0.23574864D-07 -0.37346545D-08 -0.80168077D-07
 -0.50411838D-07 -0.79860821D-08 -0.81904458D-07 -0.51503721D-07 -0.81590548D-08
  0.63671449D-06  0.61580253D-06  0.19191875D-06  0.26734643D-08 -0.35759745D-08
 -0.26988413D-08 -0.56393991D-07 -0.35462055D-07 -0.56177853D-08  0.39628624D-07
  0.24919542D-07  0.39476742D-08 -0.17808127D-07 -0.11198228D-07 -0.17739875D-08
 -0.12481604D-04 -0.12071664D-04 -0.37622105D-05 -0.42623007D-04  0.57011715D-04
  0.43027592D-04  0.10854046D-03  0.68253152D-04  0.10812446D-04 -0.63383490D-04
 -0.39857239D-04 -0.63140563D-05  0.31837895D-04  0.20020523D-04  0.31715871D-05
 -0.18294268D-04 -0.17693420D-04 -0.55142662D-05 -0.63869739D-05  0.85430936D-05
  0.64476001D-05  0.42485275D-04  0.26715881D-04  0.42322444D-05 -0.17230080D-04
 -0.10834737D-04 -0.17164044D-05  0.35259048D-04  0.22171836D-04  0.35123913D-05
  0.14731486D-02  0.14247652D-02  0.44403707D-03  0.86838566D-03 -0.11615360D-02
 -0.87662853D-03 -0.19583852D-02 -0.12314852D-02 -0.19508794D-03  0.33798182D-02
  0.21253204D-02  0.33668645D-03 -0.11562968D-02 -0.72711049D-03 -0.11518652D-03
 -0.54879388D-06 -0.53076955D-06 -0.16541768D-06 -0.72351199D-06  0.96775573D-06
  0.73037969D-06  0.42150983D-05  0.26505669D-05  0.41989433D-06 -0.30267696D-05
 -0.19033139D-05 -0.30151690D-06 -0.86040429D-05 -0.54104531D-05 -0.85710666D-06
 -0.59174623D-04 -0.57231119D-04 -0.17836440D-04 -0.64774959D-04  0.86641740D-04
  0.65389814D-04  0.68146393D-04  0.42852281D-04  0.67885212D-05 -0.28294451D-03
 -0.17792310D-03 -0.28186008D-04  0.68038492D-05  0.42784430D-05  0.67777725D-06
  0.17364034D-07  0.16793737D-07  0.52338744D-08  0.20719534D-07 -0.27714051D-07
 -0.20916208D-07 -0.13969104D-06 -0.87841475D-07 -0.13915565D-07  0.35514478D-07
  0.22332457D-07  0.35378364D-08  0.39400151D-06  0.24775872D-06  0.39249144D-07
 -0.27921887D-04 -0.27004834D-04 -0.84162271D-05 -0.20460677D-04 -0.19788676D-04
 -0.61672659D-05 -0.22765909D-04 -0.22018196D-04 -0.68621100D-05  0.24791766D-04
  0.23977517D-04  0.74727447D-05  0.10910137D-03  0.10551809D-03  0.32885380D-04
  0.24763867D-06  0.23950534D-06  0.74643354D-07  0.43510548D-06  0.42081508D-06
  0.13114968D-06 -0.19623813D-02 -0.18979298D-02 -0.59150181D-03 -0.19638075D-02
 -0.18993091D-02 -0.59193169D-03 -0.16067283D-05 -0.15539577D-05 -0.48430073D-06
  0.44941720D-07  0.43465675D-07  0.13546352D-07 -0.35388818D-08 -0.34226524D-08
 -0.10666913D-08 -0.65829884D-08 -0.63667798D-08 -0.19842472D-08  0.25077399D-08
  0.24253768D-08  0.75588402D-09
MO    6     MO 0.0        OCC NO =    2.0000000  ORB. ENERGY =  -14.506911
 -0.30881667D-05 -0.29867403D-05 -0.93083651D-06 -0.46757414D-06  0.62541819D-06
  0.47201243D-06 -0.87909289D-05 -0.55279720D-05 -0.87572364D-06 -0.20651181D-05
 -0.12986017D-05 -0.20572033D-06 -0.54271565D-05 -0.34127417D-05 -0.54063562D-06
 -0.67051432D-06 -0.64849226D-06 -0.20210671D-06 -0.21479882D-06  0.28731078D-06
  0.21683773D-06  0.72104509D-07  0.45341250D-07  0.71828158D-08 -0.63541855D-06
 -0.39956823D-06 -0.63298321D-07 -0.30992965D-06 -0.19489208D-06 -0.30874180D-07
 -0.64668557D-04 -0.62544613D-04 -0.19492424D-04 -0.39252349D-06  0.52503188D-06
  0.39624939D-06 -0.72035694D-05 -0.45297978D-05 -0.71759607D-06  0.64465197D-06
  0.40537446D-06  0.64218125D-07 -0.30890100D-05 -0.19424524D-05 -0.30771709D-06
  0.34315918D+01  0.33188862D+01  0.10343519D+01 -0.61401505D-02  0.82129474D-02
  0.61984339D-02 -0.60875860D-02 -0.38280374D-02 -0.60642544D-03 -0.46065846D-02
 -0.28967440D-02 -0.45889292D-03 -0.92783299D-03 -0.58344628D-03 -0.92427693D-04
 -0.20943310D-02 -0.20255458D-02 -0.63127415D-03 -0.87002719D-04  0.11637316D-03
  0.87828564D-04  0.49491451D-03  0.31121552D-03  0.49301768D-04  0.93701349D-04
  0.58921923D-04  0.93342225D-05  0.10389717D-03  0.65333329D-04  0.10349897D-04
 -0.15227972D-02 -0.14727831D-02 -0.45900217D-03 -0.54266624D-04  0.72585993D-04
  0.54781732D-04  0.51448264D-03  0.32352049D-03  0.51251081D-04 -0.11595061D-03
 -0.72912858D-04 -0.11550622D-04  0.10119105D-03  0.63631648D-04  0.10080322D-04
 -0.45378212D-04 -0.43887831D-04 -0.13677920D-04 -0.33200919D-04  0.44408912D-04
  0.33516068D-04 -0.94346804D-05 -0.59327802D-05 -0.93985206D-06  0.94273823D-04
  0.59281909D-04  0.93912504D-05 -0.73733624D-04 -0.46365681D-04 -0.73451029D-05
 -0.15242214D-04 -0.14741606D-04 -0.45943146D-05 -0.47771851D-04  0.63898711D-04
  0.48225310D-04 -0.94084178D-04 -0.59162656D-04 -0.93723587D-05  0.76432618D-04
  0.48062881D-04  0.76139679D-05  0.22911345D-04  0.14407269D-04  0.22823534D-05
  0.40977330D-05  0.39631489D-05  0.12351404D-05  0.34843641D-05 -0.46606185D-05
 -0.35174383D-05  0.10869787D-04  0.68352140D-05  0.10828127D-05  0.68414498D-05
  0.43020872D-05  0.68152289D-06  0.69795033D-05  0.43888990D-05  0.69527534D-06
  0.14983903D-02  0.14491778D-02  0.45164543D-03  0.87662393D-03 -0.11725553D-02
 -0.88494499D-03  0.15720553D-02  0.98855054D-03  0.15660301D-03 -0.37650063D-02
 -0.23675370D-02 -0.37505763D-03  0.57539613D-03  0.36182453D-03  0.57319084D-04
 -0.32712701D-05 -0.31638300D-05 -0.98602761D-06 -0.11469050D-05  0.15340781D-05
  0.11577916D-05 -0.88212711D-05 -0.55470520D-05 -0.87874623D-06  0.10442859D-05
  0.65667499D-06  0.10402835D-06 -0.85202186D-06 -0.53577421D-06 -0.84875637D-07
  0.15920568D-02  0.15397680D-02  0.47987843D-03  0.13706686D-02 -0.18333800D-02
 -0.13836792D-02 -0.55940354D-02 -0.35176795D-02 -0.55725954D-03  0.24727681D-03
  0.15549429D-03  0.24632908D-04 -0.11134608D-02 -0.70017405D-03 -0.11091933D-03
 -0.13723037D-03 -0.13272324D-03 -0.41364036D-04 -0.54640680D-05 -0.52846087D-05
 -0.16469817D-05 -0.30036016D-04 -0.29049527D-04 -0.90534688D-05 -0.35337161D-04
 -0.34176563D-04 -0.10651342D-04  0.22518269D-05  0.21778690D-05  0.67874663D-06
  0.78962197D-04  0.76368799D-04  0.23800819D-04  0.52330574D-04  0.50611853D-04
  0.15773504D-04  0.22142209D-05  0.21414980D-05  0.66741139D-06  0.17813114D-06
  0.17228069D-06  0.53692365D-07  0.40355381D-06  0.39029967D-06  0.12163936D-06
 -0.11547824D-03 -0.11168552D-03 -0.34807499D-04  0.27035320D-05  0.26147384D-05
  0.81489976D-06 -0.24175743D-05 -0.23381726D-05 -0.72870626D-06  0.78201202D-05
  0.75632798D-05  0.23571440D-05
MO    7     MO 0.0        OCC NO =    2.0000000  ORB. ENERGY =  -10.475767
  0.21520027D-02  0.20813233D-02  0.64865756D-03  0.11747228D-02 -0.15712867D-02
 -0.11858735D-02 -0.12001688D-02 -0.75469833D-03 -0.11955690D-03  0.52511464D-02
  0.33020618D-02  0.52310206D-03 -0.16187241D-02 -0.10178971D-02 -0.16125201D-03
  0.16892789D-02  0.16337970D-02  0.50918315D-03  0.16244866D-02 -0.21728821D-02