 opt aspargine pbe0
GAUSSIAN             53 MOL ORBITALS    159 PRIMITIVES       17 NUCLEI
  O    1    (CENTRE  1)   0.87859884  3.09223392 -1.45228871  CHARGE =  8.0
  O    2    (CENTRE  2)   4.39803761  1.83415631  0.85536230  CHARGE =  8.0
  O    3    (CENTRE  3)  -3.90011791  1.73523357  1.84775895  CHARGE =  8.0
  N    4    (CENTRE  4)   3.30302973 -3.39782443 -0.09587196  CHARGE =  7.0
  N    5    (CENTRE  5)  -4.39009036 -0.85227510 -1.74240558  CHARGE =  7.0
  C    6    (CENTRE  6)   1.32670411 -1.43091344 -0.59066036  CHARGE =  6.0
  C    7    (CENTRE  7)  -0.91361094 -1.83458816  1.26489402  CHARGE =  6.0
  C    8    (CENTRE  8)   2.42023441  1.29343873 -0.28515635  CHARGE =  6.0
  C    9    (CENTRE  9)  -3.21534336 -0.13530055  0.60731979  CHARGE =  6.0
  H   10    (CENTRE 10)   0.62874205 -1.65187232 -2.53911190  CHARGE =  1.0
  H   11    (CENTRE 11)  -1.45916084 -3.83334567  1.18079321  CHARGE =  1.0
  H   12    (CENTRE 12)  -0.31016365 -1.41252155  3.20198475  CHARGE =  1.0
  H   13    (CENTRE 13)   4.26347402 -2.72665019  1.50994420  CHARGE =  1.0
  H   14    (CENTRE 14)   4.65694691 -3.12863176 -1.52286554  CHARGE =  1.0
  H   15    (CENTRE 15)  -4.46339656 -2.79719119 -1.99708563  CHARGE =  1.0
  H   16    (CENTRE 16)  -6.19133789 -0.08723406 -1.90904500  CHARGE =  1.0
  H   17    (CENTRE 17)   1.76426665  4.73933356 -1.04171423  CHARGE =  1.0
CENTRE ASSIGNMENTS    1  1  1  1  1  1  1  1  1  1  1  1  1  1  1  2  2  2  2  2
CENTRE ASSIGNMENTS    2  2  2  2  2  2  2  2  2  2  3  3  3  3  3  3  3  3  3  3
CENTRE ASSIGNMENTS    3  3  3  3  3  4  4  4  4  4  4  4  4  4  4  4  4  4  4  4
CENTRE ASSIGNMENTS    5  5  5  5  5  5  5  5  5  5  5  5  5  5  5  6  6  6  6  6
CENTRE ASSIGNMENTS    6  6  6  6  6  6  6  6  6  6  7  7  7  7  7  7  7  7  7  7
CENTRE ASSIGNMENTS    7  7  7  7  7  8  8  8  8  8  8  8  8  8  8  8  8  8  8  8
CENTRE ASSIGNMENTS    9  9  9  9  9  9  9  9  9  9  9  9  9  9  9 10 10 10 11 11
CENTRE ASSIGNMENTS   11 12 12 12 13 13 13 14 14 14 15 15 15 16 16 16 17 17 17
TYPE ASSIGNMENTS      1  1  1  1  1  1  2  2  2  3  3  3  4  4  4  1  1  1  1  1
TYPE ASSIGNMENTS      1  2  2  2  3  3  3  4  4  4  1  1  1  1  1  1  2  2  2  3
TYPE ASSIGNMENTS      3  3  4  4  4  1  1  1  1  1  1  2  2  2  3  3  3  4  4  4
TYPE ASSIGNMENTS      1  1  1  1  1  1  2  2  2  3  3  3  4  4  4  1  1  1  1  1
TYPE ASSIGNMENTS      1  2  2  2  3  3  3  4  4  4  1  1  1  1  1  1  2  2  2  3
TYPE ASSIGNMENTS      3  3  4  4  4  1  1  1  1  1  1  2  2  2  3  3  3  4  4  4
TYPE ASSIGNMENTS      1  1  1  1  1  1  2  2  2  3  3  3  4  4  4  1  1  1  1  1
TYPE ASSIGNMENTS      1  1  1  1  1  1  1  1  1  1  1  1  1  1  1  1  1  1  1
EXPONENTS  0.1307093D+03 0.2380887D+02 0.6443608D+01 0.5033151D+01 0.1169596D+01
EXPONENTS  0.3803890D+00 0.5033151D+01 0.1169596D+01 0.3803890D+00 0.5033151D+01
EXPONENTS  0.1169596D+01 0.3803890D+00 0.5033151D+01 0.1169596D+01 0.3803890D+00
EXPONENTS  0.1307093D+03 0.2380887D+02 0.6443608D+01 0.5033151D+01 0.1169596D+01
EXPONENTS  0.3803890D+00 0.5033151D+01 0.1169596D+01 0.3803890D+00 0.5033151D+01
EXPONENTS  0.1169596D+01 0.3803890D+00 0.5033151D+01 0.1169596D+01 0.3803890D+00
EXPONENTS  0.1307093D+03 0.2380887D+02 0.6443608D+01 0.5033151D+01 0.1169596D+01
EXPONENTS  0.3803890D+00 0.5033151D+01 0.1169596D+01 0.3803890D+00 0.5033151D+01
EXPONENTS  0.1169596D+01 0.3803890D+00 0.5033151D+01 0.1169596D+01 0.3803890D+00
EXPONENTS  0.9910617D+02 0.1805231D+02 0.4885660D+01 0.3780456D+01 0.8784966D+00
EXPONENTS  0.2857144D+00 0.3780456D+01 0.8784966D+00 0.2857144D+00 0.3780456D+01
EXPONENTS  0.8784966D+00 0.2857144D+00 0.3780456D+01 0.8784966D+00 0.2857144D+00
EXPONENTS  0.9910617D+02 0.1805231D+02 0.4885660D+01 0.3780456D+01 0.8784966D+00
EXPONENTS  0.2857144D+00 0.3780456D+01 0.8784966D+00 0.2857144D+00 0.3780456D+01
EXPONENTS  0.8784966D+00 0.2857144D+00 0.3780456D+01 0.8784966D+00 0.2857144D+00
EXPONENTS  0.7161684D+02 0.1304510D+02 0.3530512D+01 0.2941249D+01 0.6834831D+00
EXPONENTS  0.2222899D+00 0.2941249D+01 0.6834831D+00 0.2222899D+00 0.2941249D+01
EXPONENTS  0.6834831D+00 0.2222899D+00 0.2941249D+01 0.6834831D+00 0.2222899D+00
EXPONENTS  0.7161684D+02 0.1304510D+02 0.3530512D+01 0.2941249D+01 0.6834831D+00
EXPONENTS  0.2222899D+00 0.2941249D+01 0.6834831D+00 0.2222899D+00 0.2941249D+01
EXPONENTS  0.6834831D+00 0.2222899D+00 0.2941249D+01 0.6834831D+00 0.2222899D+00
EXPONENTS  0.7161684D+02 0.1304510D+02 0.3530512D+01 0.2941249D+01 0.6834831D+00
EXPONENTS  0.2222899D+00 0.2941249D+01 0.6834831D+00 0.2222899D+00 0.2941249D+01
EXPONENTS  0.6834831D+00 0.2222899D+00 0.2941249D+01 0.6834831D+00 0.2222899D+00
EXPONENTS  0.7161684D+02 0.1304510D+02 0.3530512D+01 0.2941249D+01 0.6834831D+00
EXPONENTS  0.2222899D+00 0.2941249D+01 0.6834831D+00 0.2222899D+00 0.2941249D+01
EXPONENTS  0.6834831D+00 0.2222899D+00 0.2941249D+01 0.6834831D+00 0.2222899D+00
EXPONENTS  0.3425251D+01 0.6239137D+00 0.1688554D+00 0.3425251D+01 0.6239137D+00
EXPONENTS  0.1688554D+00 0.3425251D+01 0.6239137D+00 0.1688554D+00 0.3425251D+01
EXPONENTS  0.6239137D+00 0.1688554D+00 0.3425251D+01 0.6239137D+00 0.1688554D+00
EXPONENTS  0.3425251D+01 0.6239137D+00 0.1688554D+00 0.3425251D+01 0.6239137D+00
EXPONENTS  0.1688554D+00 0.3425251D+01 0.6239137D+00 0.1688554D+00
MO    1     MO 0.0        OCC NO =    2.0000005  ORB. ENERGY =    0.000000
  0.11684414D+00  0.11300657D+00  0.35219212D-01  0.24770323D-03 -0.33132309D-03
 -0.25005447D-03 -0.21995042D-04 -0.13831073D-04 -0.21910743D-05  0.10061119D-02
  0.63267015D-03  0.10022558D-03  0.31492427D-03  0.19803283D-03  0.31371727D-04
  0.20092393D+01  0.19432488D+01  0.60562578D+00  0.15853474D-03 -0.21205302D-03
 -0.16003958D-03 -0.95055491D-02 -0.59773444D-02 -0.94691177D-03 -0.28442512D-02
 -0.17885415D-02 -0.28333502D-03 -0.50513900D-02 -0.31764496D-02 -0.50320298D-03
  0.21797728D+00  0.21081813D+00  0.65702804D-01  0.79001835D-05 -0.10567134D-04
 -0.79751734D-05  0.44096637D-03  0.27729149D-03  0.43927630D-04 -0.11186121D-02
 -0.70341328D-03 -0.11143248D-03 -0.59650208D-03 -0.37509652D-03 -0.59421590D-04
  0.28150874D+01  0.27226300D+01  0.84852484D+00 -0.22833847D-02  0.30542115D-02
  0.23050590D-02  0.77525033D-02  0.48749821D-02  0.77227907D-03  0.18653030D-01
  0.11729526D-01  0.18581540D-02 -0.12508481D-02 -0.78656684D-03 -0.12460540D-03
  0.13836833D-02  0.13382383D-02  0.41707042D-03  0.31268663D-04 -0.41824363D-04
 -0.31565471D-04 -0.12135966D-03 -0.76314210D-04 -0.12089453D-04 -0.37942111D-04
 -0.23859017D-04 -0.37796692D-05 -0.73978534D-04 -0.46519687D-04 -0.73695001D-05
 -0.25471767D-02 -0.24635184D-02 -0.76777108D-03  0.10220149D-02 -0.13670275D-02
 -0.10317160D-02 -0.15659880D-02 -0.98473528D-03 -0.15599861D-03  0.11566467D-02
  0.72733050D-03  0.11522137D-03 -0.59276415D-03 -0.37274601D-03 -0.59049230D-04
  0.95077552D-02  0.91954869D-02  0.28658316D-02 -0.10127978D-03  0.13546989D-03
  0.10224114D-03  0.40763308D-03  0.25633062D-03  0.40607076D-04 -0.10431972D-03
 -0.65599041D-04 -0.10391990D-04 -0.41992162D-03 -0.26405798D-03 -0.41831221D-04
  0.87065891D+00  0.84206339D+00  0.26243438D+00 -0.14378143D-02  0.19231927D-02
  0.14514622D-02 -0.25675551D-03 -0.16145475D-03 -0.25577146D-04  0.32763398D-03
  0.20602504D-03  0.32637828D-04 -0.43058853D-03 -0.27076562D-03 -0.42893823D-04
  0.69346455D-01  0.67068872D-01  0.20902438D-01 -0.68115548D-04  0.91110048D-04
  0.68762112D-04 -0.98588731D-04 -0.61995240D-04 -0.98210875D-05 -0.12755319D-03
 -0.80208872D-04 -0.12706433D-04 -0.14294293D-03 -0.89886348D-04 -0.14239508D-04
  0.18664790D-03  0.18051772D-03  0.56259488D-04 -0.18166961D-03 -0.17570294D-03
 -0.54758931D-04 -0.38986653D-04 -0.37706193D-04 -0.11751373D-04 -0.14727530D-02
 -0.14243826D-02 -0.44391785D-03 -0.14031560D-02 -0.13570714D-02 -0.42293987D-03
  0.13747251D-04  0.13295743D-04  0.41437024D-05 -0.88722355D-05 -0.85808399D-05
 -0.26742730D-05 -0.43837869D-03 -0.42398078D-03 -0.13213629D-03
MO    2     MO 0.0        OCC NO =    2.0000005  ORB. ENERGY =    0.000000
 -0.41936138D-01 -0.40558807D-01 -0.12640409D-01 -0.42048368D-04  0.56243090D-04
  0.42447499D-04  0.24948531D-04  0.15688306D-04  0.24852912D-05 -0.22195168D-03
 -0.13956917D-03 -0.22110102D-04 -0.55008270D-04 -0.34590676D-04 -0.54797442D-05
 -0.40010819D+00 -0.38696722D+00 -0.12060078D+00  0.17543389D-04 -0.23465700D-04
 -0.17709914D-04  0.18324760D-02  0.11523101D-02  0.18254528D-03  0.55442222D-03
  0.34863557D-03  0.55229731D-04  0.10374433D-02  0.65237216D-03  0.10334671D-03
  0.37826777D+01  0.36584412D+01  0.11401763D+01 -0.18436223D-03  0.24659938D-03
  0.18611223D-03  0.58824010D-02  0.36990116D-02  0.58598559D-03 -0.16149803D-01
 -0.10155429D-01 -0.16087906D-02 -0.10815478D-01 -0.68010628D-02 -0.10774026D-02
  0.18236273D-01  0.17637329D-01  0.54967852D-02  0.17561458D-04 -0.23489868D-04
 -0.17728154D-04  0.22113231D-03  0.13905393D-03  0.22028479D-04 -0.10250892D-04
 -0.64460360D-05 -0.10211604D-05 -0.54512032D-04 -0.34278629D-04 -0.54303107D-05
 -0.75031655D-01 -0.72567350D-01 -0.22616073D-01  0.49192467D-03 -0.65798898D-03
 -0.49659410D-03 -0.82262019D-03 -0.51728565D-03 -0.81946738D-04 -0.25006211D-04
 -0.15724577D-04 -0.24910371D-05 -0.27763729D-02 -0.17458578D-02 -0.27657320D-03
 -0.70174050D-02 -0.67869286D-02 -0.21151892D-02 -0.65391470D-04  0.87466374D-04
  0.66012178D-04  0.23658869D-04  0.14877332D-04  0.23568193D-05  0.22003066D-03
  0.13836118D-03  0.21918736D-04  0.69313292D-04  0.43586058D-04  0.69047639D-05
  0.28175305D-01  0.27249928D-01  0.84926123D-02  0.46543619D-03 -0.62255851D-03
 -0.46985420D-03  0.22117214D-02  0.13907897D-02  0.22032446D-03 -0.14816702D-02
 -0.93171396D-03 -0.14759915D-03  0.93669502D-03  0.58901896D-03  0.93310500D-04
 -0.13749352D+00 -0.13297775D+00 -0.41443355D-01  0.21082875D-03 -0.28200049D-03
 -0.21282997D-03  0.25201289D-03  0.15847247D-03  0.25104701D-04 -0.47278029D-04
 -0.29729693D-04 -0.47096829D-05  0.13090924D-03  0.82319240D-04  0.13040751D-04
  0.11881943D+01  0.11491698D+01  0.35814602D+00 -0.18797448D-02  0.25143105D-02
  0.18975877D-02  0.50241203D-03  0.31593017D-03  0.50048647D-04 -0.19219718D-02
 -0.12085875D-02 -0.19146056D-03 -0.22485847D-02 -0.14139704D-02 -0.22399667D-03
  0.16420936D-05  0.15881614D-05  0.49496054D-06  0.10745126D-03  0.10392218D-03
  0.32388003D-04 -0.15115549D-03 -0.14619101D-03 -0.45561353D-04  0.13400227D-04
  0.12960116D-04  0.40391022D-05  0.33318804D-04  0.32224497D-04  0.10042968D-04
  0.13527298D-03  0.13083014D-03  0.40774039D-04 -0.21926679D-03 -0.21206530D-03
 -0.66091490D-04  0.53705157D-04  0.51941290D-04  0.16187831D-04
MO    3     MO 0.0        OCC NO =    2.0000005  ORB. ENERGY =    0.000000
  0.11897396D+00  0.11506643D+00  0.35861181D-01  0.17438611D-03 -0.23325550D-03
 -0.17604141D-03 -0.36350383D-03 -0.22858096D-03 -0.36211065D-04  0.20059067D-02
  0.12613679D-02  0.19982187D-03 -0.82136971D-03 -0.51649931D-03 -0.81822169D-04
  0.31474107D+01  0.30440386D+01  0.94869388D+00 -0.26185006D-03  0.35024561D-03
  0.26433559D-03 -0.14059967D-01 -0.88412848D-02 -0.14006081D-02 -0.37526135D-02
 -0.23597440D-02 -0.37382310D-03 -0.82704639D-02 -0.52006896D-02 -0.82387661D-03
  0.35514604D+00  0.34348179D+00  0.10704827D+00 -0.40860599D-04  0.54654353D-04
  0.41248455D-04  0.39268691D-03  0.24693207D-03  0.39118189D-04 -0.14405543D-02
 -0.90585919D-03 -0.14350332D-03 -0.11103083D-02 -0.69819166D-03 -0.11060529D-03
 -0.19668532D+01 -0.19022548D+01 -0.59284974D+00  0.17740399D-02 -0.23729217D-02
 -0.17908794D-02 -0.44759480D-02 -0.28145962D-02 -0.44587933D-03 -0.11842931D-01
 -0.74471526D-02 -0.11797541D-02  0.10519942D-02  0.66152219D-03  0.10479623D-03
 -0.55493064D-02 -0.53670475D-02 -0.16726743D-02  0.38921966D-04 -0.52061274D-04
 -0.39291420D-04 -0.66179739D-04 -0.41615596D-04 -0.65926096D-05  0.27043482D-05
  0.17005667D-05  0.26939834D-06 -0.22900423D-03 -0.14400400D-03 -0.22812653D-04
  0.13175694D-01  0.12742958D-01  0.39714233D-02 -0.40102334D-04  0.53640111D-04
  0.40482992D-04  0.78147615D-04  0.49141317D-04  0.77848103D-05 -0.42778840D-02
 -0.26900483D-02 -0.42614884D-03  0.18805519D-03  0.11825415D-03  0.18733444D-04
  0.21683755D-03  0.20971583D-03  0.65359265D-04  0.77897456D-04 -0.10419414D-03
 -0.78636872D-04  0.18146513D-03  0.11411014D-03  0.18076964D-04 -0.24496952D-04
 -0.15404341D-04 -0.24403064D-05  0.28606706D-03  0.17988665D-03  0.28497067D-04
  0.91595686D+00  0.88587360D+00  0.27608811D+00 -0.13763058D-02  0.18409202D-02
  0.13893699D-02 -0.24600433D-02 -0.15469412D-02 -0.24506148D-03  0.34730540D-04
  0.21839495D-04  0.34597430D-05 -0.13247219D-02 -0.83302071D-03 -0.13196448D-03
  0.97457041D-01  0.94256207D-01  0.29375543D-01 -0.15919989D-03  0.21294272D-03
  0.16071105D-03  0.95973537D-04  0.60350736D-04  0.95605705D-05 -0.25851941D-03
 -0.16256394D-03 -0.25752859D-04 -0.20166280D-03 -0.12681098D-03 -0.20088990D-04
 -0.15868178D-06 -0.15347011D-06 -0.47829931D-07 -0.15887305D-04 -0.15365509D-04
 -0.47887581D-05  0.30324517D-04  0.29328553D-04  0.91404288D-05  0.86212374D-03
  0.83380855D-03  0.25986171D-03  0.97479040D-03  0.94277484D-03  0.29382174D-03
  0.73775390D-05  0.71352345D-05  0.22237409D-05 -0.14211250D-04 -0.13744503D-04
 -0.42835611D-05 -0.30393052D-03 -0.29394836D-03 -0.91610866D-04
MO    4     MO 0.0        OCC NO =    2.0000003  ORB. ENERGY =    0.000000
  0.41913911D+01  0.40537310D+01  0.12633709D+01 -0.62780426D-03  0.83973891D-03
  0.63376348D-03  0.18277259D-01  0.11493231D-01  0.18207209D-02  0.25313582D-02
  0.15917860D-02  0.25216564D-03  0.11367088D-01  0.71479303D-02  0.11323522D-02
 -0.46558105D+00 -0.45028973D+00 -0.14033564D+00 -0.40479409D-04  0.54144479D-04
  0.40863646D-04  0.22568281D-02  0.14191541D-02  0.22481785D-03  0.59079444D-03
  0.37150740D-03  0.58853013D-04  0.12831766D-02  0.80689586D-03  0.12782586D-03
  0.55731007D-01  0.53900604D-01  0.16798464D-01 -0.40283591D-04  0.53882558D-04
  0.40665970D-04  0.18767644D-03  0.11801598D-03  0.18695715D-04 -0.24672130D-03
 -0.15514497D-03 -0.24577570D-04 -0.28115539D-03 -0.17679805D-03 -0.28007782D-04
 -0.65036479D-01 -0.62900451D-01 -0.19603323D-01  0.87486814D-04 -0.11702068D-03
 -0.88317254D-04 -0.10196033D-03 -0.64115393D-04 -0.10156955D-04 -0.32536888D-03
 -0.20460069D-03 -0.32412186D-04  0.43919596D-04  0.27617820D-04  0.43751268D-05
 -0.66654257D-02 -0.64465096D-02 -0.20090955D-02 -0.26454589D-04  0.35385150D-04
  0.26705700D-04  0.13408672D-03  0.84317328D-04  0.13357281D-04  0.10566622D-03
  0.66445757D-04  0.10526124D-04 -0.95905264D-06 -0.60307804D-06 -0.95537693D-07
  0.97070640D-02  0.93882497D-02  0.29259074D-02  0.59281183D-04 -0.79293371D-04
 -0.59843890D-04 -0.33451417D-03 -0.21035149D-03 -0.33323210D-04 -0.49720968D-03
 -0.31265879D-03 -0.49530405D-04 -0.27260011D-03 -0.17141826D-03 -0.27155533D-04
  0.15344529D-01  0.14840560D-01  0.46251544D-02 -0.68572693D-04  0.91721516D-04
  0.69223597D-04 -0.35909814D-04 -0.22581055D-04 -0.35772184D-05  0.96245064D-04
  0.60521479D-04  0.95876191D-05 -0.91994677D-05 -0.57848722D-05 -0.91642094D-06
  0.32974565D+00  0.31891563D+00  0.99392073D-01 -0.29070986D-03  0.38884792D-03
  0.29346933D-03  0.38488431D-02  0.24202558D-02  0.38340919D-03 -0.10588702D-02
 -0.66584598D-03 -0.10548119D-03  0.25408279D-02  0.15977408D-02  0.25310898D-03
 -0.35900650D-01 -0.34721545D-01 -0.10821189D-01  0.14411181D-03 -0.19276118D-03
 -0.14547974D-03 -0.13667941D-03 -0.85947680D-04 -0.13615556D-04 -0.26685833D-03
 -0.16780768D-03 -0.26583556D-04  0.62560607D-04  0.39339788D-04  0.62320834D-05
 -0.95151579D-04 -0.92026464D-04 -0.28680629D-04 -0.31581329D-04 -0.30544086D-04
 -0.95192575D-05 -0.22643940D-04 -0.21900233D-04 -0.68253460D-05  0.44123173D-04
  0.42674012D-04  0.13299626D-04  0.30573389D-04  0.29569251D-04  0.92154439D-05
 -0.36762031D-05 -0.35554636D-05 -0.11080827D-05 -0.35820251D-05 -0.34643787D-05
 -0.10796955D-05 -0.14100360D-02 -0.13637254D-02 -0.42501364D-03
MO    5     MO 0.0        OCC NO =    2.0000002  ORB. ENERGY =    0.000000
  0.31790439D-01  0.30746329D-01  0.95822877D-02  0.44058343D-04 -0.58931594D-04
 -0.44476553D-04  0.21224370D-03  0.13346454D-03  0.21143025D-04  0.37293351D-03
  0.23451060D-03  0.37150419D-04 -0.63167706D-04 -0.39721549D-04 -0.62925607D-05
 -0.12249900D+00 -0.11847570D+00 -0.36923699D-01  0.55115154D-04 -0.73720971D-04
 -0.55638317D-04  0.50621684D-03  0.31832273D-03  0.50427669D-04  0.28590992D-03
  0.17978783D-03  0.28481413D-04  0.31154065D-03  0.19590512D-03  0.31034663D-04
 -0.18591151D+01 -0.17980552D+01 -0.56037526D+00  0.76950680D-03 -0.10292775D-02
 -0.77681109D-03 -0.26573383D-02 -0.16710056D-02 -0.26471536D-03  0.65341662D-02
  0.41088591D-02  0.65091231D-03  0.43904763D-02  0.27608493D-02  0.43736491D-03
 -0.27382370D-01 -0.26483036D-01 -0.82536055D-02  0.39838004D-04 -0.53286549D-04
 -0.40216153D-04  0.71287849D-04  0.44827712D-04  0.71014628D-05 -0.94872741D-04
 -0.59658525D-04 -0.94509128D-05 -0.20743229D-04 -0.13043899D-04 -0.20663728D-05
 -0.38951195D+00 -0.37671900D+00 -0.11740686D+00  0.15124457D-02 -0.20230184D-02
 -0.15268021D-02 -0.44494623D-03 -0.27979413D-03 -0.44324091D-04 -0.72438143D-03
 -0.45551048D-03 -0.72160513D-04 -0.51937856D-02 -0.32659917D-02 -0.51738796D-03
 -0.11331112D+00 -0.10958958D+00 -0.34154286D-01  0.21822867D-03 -0.29189847D-03
 -0.22030013D-03 -0.43187504D-03 -0.27157462D-03 -0.43021982D-04 -0.50318159D-03
 -0.31641409D-03 -0.50125308D-04  0.26998009D-03  0.16977072D-03  0.26894535D-04
 -0.38092180D+00 -0.36841099D+00 -0.11481761D+00  0.19550925D-02 -0.26150941D-02
 -0.19736505D-02  0.35600043D-02  0.22386262D-02  0.35463600D-03 -0.28149182D-02
 -0.17700961D-02 -0.28041296D-03  0.63321104D-03  0.39818010D-03  0.63078417D-04
  0.16687083D+00  0.16139020D+00  0.50298276D-01 -0.42374635D-03  0.56679498D-03
  0.42776862D-03  0.38233623D-03  0.24042328D-03  0.38087087D-04 -0.18368457D-04
 -0.11550579D-04 -0.18298058D-05  0.15660890D-03  0.98479879D-04  0.15600867D-04
  0.23526776D+01  0.22754073D+01  0.70914507D+00 -0.59493937D-02  0.79577947D-02
  0.60058664D-02 -0.15866914D-02 -0.99775414D-03 -0.15806102D-03  0.38650333D-02
  0.24304367D-02  0.38502200D-03  0.10447468D-02  0.65696480D-03  0.10407426D-03
  0.98215978D-04  0.94990218D-04  0.29604302D-04  0.30075701D-03  0.29087908D-03
  0.90654305D-04  0.36288717D-03  0.35096867D-03  0.10938160D-03  0.27286226D-04
  0.26390049D-04  0.82246257D-05  0.40131673D-04  0.38813607D-04  0.12096506D-04
  0.87233798D-04  0.84368732D-04  0.26294049D-04  0.76247061D-04  0.73742838D-04
  0.22982422D-04 -0.53470052D-04 -0.51713906D-04 -0.16116966D-04
MO    6     MO 0.0        OCC NO =    2.0000002  ORB. ENERGY =    0.000000
 -0.67259313D+00 -0.65050279D+00 -0.20273331D+00  0.12917064D-02 -0.17277616D-02
 -0.13039675D-02 -0.44854023D-02 -0.28205414D-02 -0.44682114D-03  0.24890690D-02
  0.15651934D-02  0.24795293D-03 -0.31488823D-02 -0.19801017D-02 -0.31368138D-03
 -0.19108022D+01 -0.18480447D+01 -0.57595480D+00  0.77669149D-03 -0.10388876D-02
 -0.78406398D-03  0.72707597D-02  0.45720488D-02  0.72428935D-03  0.20477273D-02
  0.12876658D-02  0.20398790D-03  0.41508659D-02  0.26101758D-02  0.41349571D-03
  0.14041361D+00  0.13580194D+00  0.42323532D-01 -0.68779970D-04  0.91998767D-04
  0.69432842D-04  0.10078817D-03  0.63378308D-04  0.10040189D-04 -0.52279404D-03
 -0.32874692D-03 -0.52079035D-04 -0.38904359D-03 -0.24464105D-03 -0.38755252D-04
 -0.26372657D+00 -0.25506486D+00 -0.79492576D-01  0.20228418D-03 -0.27057143D-03
 -0.20420430D-03 -0.76563662D-03 -0.48145285D-03 -0.76270221D-04 -0.15528398D-03
 -0.97646734D-04 -0.15468883D-04  0.10153966D-04  0.63850866D-05  0.10115050D-05
  0.36683036D-01  0.35478235D-01  0.11057016D-01 -0.12161708D-03  0.16267267D-03
  0.12277149D-03  0.11849936D-04  0.74515580D-05  0.11804520D-05  0.39015536D-04
  0.24534016D-04  0.38866004D-05  0.39810654D-03  0.25034008D-03  0.39658074D-04
 -0.39374888D+00 -0.38081678D+00 -0.11868396D+00  0.19362342D-02 -0.25898697D-02
 -0.19546133D-02 -0.19024042D-02 -0.11962828D-02 -0.18951130D-03 -0.41884681D-02
 -0.26338212D-02 -0.41724152D-03 -0.61480364D-03 -0.38660503D-03 -0.61244731D-04
 -0.12834617D-01 -0.12413082D-01 -0.38686156D-02 -0.19495007D-03  0.26076147D-03
  0.19680057D-03  0.20881035D-03  0.13130555D-03  0.20801005D-04  0.16825256D-03
  0.10580172D-03  0.16760771D-04 -0.31303831D-03 -0.19684689D-03 -0.31183855D-04
  0.23077058D+01  0.22319126D+01  0.69558965D+00 -0.57290007D-02  0.76630012D-02
  0.57833813D-02  0.33216137D-02  0.20887198D-02  0.33088831D-03  0.21213255D-02
  0.13339464D-02  0.21131952D-03  0.18008199D-02  0.11324039D-02  0.17939180D-03
 -0.17477366D+00 -0.16903348D+00 -0.52680352D-01  0.43170885D-03 -0.57744547D-03
 -0.43580671D-03  0.13724412D-03  0.86302785D-04  0.13671811D-04 -0.37951208D-03
 -0.23864738D-03 -0.37805754D-04 -0.95674799D-04 -0.60162881D-04 -0.95308111D-05
  0.34037177D-03  0.32919275D-03  0.10259500D-03 -0.10931825D-03 -0.10572785D-03
 -0.32950754D-04 -0.18198095D-04 -0.17600405D-04 -0.54852774D-05  0.17198541D-03
  0.16633680D-03  0.51839916D-04  0.10902700D-03  0.10544617D-03  0.32862966D-04
 -0.10445745D-04 -0.10102670D-04 -0.31485608D-05 -0.75311414D-05 -0.72837921D-05
 -0.22700398D-05 -0.15387942D-03 -0.14882548D-03 -0.46382400D-04
MO    7     MO 0.0        OCC NO =    2.0000001  ORB. ENERGY =    0.000000
  0.11077013D-01  0.10713205D-01  0.33388380D-02 -0.13993242D-04  0.18717092D-04
  0.14126068D-04  0.40814138D-04  0.25665025D-04  0.40657712D-05 -0.25744826D-04
 -0.16189037D-04 -0.25646155D-05 -0.21277020D-05 -0.13379561D-05 -0.21195472D-06
 -0.17338393D-01 -0.16768938D-01 -0.52261457D-02  0.10895635D-04 -0.14573792D-04
 -0.10999058D-04  0.65608339D-04  0.41256284D-04  0.65356885D-05 -0.89487842D-04
 -0.56272357D-04 -0.89144867D-05  0.85124444D-05  0.53528534D-05  0.84798192D-06
 -0.13377720D+00 -0.12938348D+00 -0.40323180D-01  0.28014527D-04 -0.37471693D-04
 -0.28280446D-04 -0.71960990D-04 -0.45251002D-04 -0.71685189D-05  0.35617352D-03
  0.22397147D-03  0.35480843D-04  0.13689061D-03  0.86080487D-04  0.13636595D-04
 -0.58136230D-02 -0.56226830D-02 -0.17523447D-02  0.74336989D-04 -0.99431728D-04
 -0.75042608D-04  0.26790414D-03  0.16846531D-03  0.26687735D-04 -0.26253458D-03
 -0.16508879D-03 -0.26152837D-04  0.14653350D-04  0.92144197D-05  0.14597189D-05
  0.34010048D+01  0.32893038D+01  0.10251323D+01 -0.62726664D-02  0.83901980D-02
  0.63322076D-02 -0.48928549D-02 -0.30767585D-02 -0.48741024D-03 -0.29956448D-02
 -0.18837419D-02 -0.29841636D-03  0.73026383D-02  0.45920949D-02  0.72746499D-03
  0.15351912D+00  0.14847701D+00  0.46273799D-01 -0.44185462D-03  0.59101625D-03
  0.44604878D-03 -0.12411900D-03 -0.78049358D-04 -0.12364330D-04 -0.63538776D-04
 -0.39954887D-04 -0.63295255D-05  0.10311757D-03  0.64843098D-04  0.10272236D-04
 -0.39058928D-01 -0.37776094D-01 -0.11773159D-01  0.29783656D-03 -0.39838046D-03
 -0.30066367D-03  0.34810221D-03  0.21889601D-03  0.34676805D-04 -0.36348579D-03
 -0.22856962D-03 -0.36209268D-04  0.16320039D-03  0.10262479D-03  0.16257490D-04
  0.14423111D-01  0.13949405D-01  0.43474201D-02  0.18663310D-04 -0.24963685D-04
 -0.18840465D-04  0.11595660D-03  0.72916619D-04  0.11551217D-04  0.21053104D-03
  0.13238757D-03  0.20972415D-04  0.59141090D-04  0.37189505D-04  0.58914423D-05
  0.30310423D+00  0.29314921D+00  0.91361805D-01  0.68213244D-04 -0.91240724D-04
 -0.68860735D-04  0.65742895D-03  0.41340896D-03  0.65490926D-04  0.75856274D-03
  0.47700461D-03  0.75565544D-04  0.39299464D-02  0.24712557D-02  0.39148843D-03
 -0.21613771D-03 -0.20903898D-03 -0.65148320D-04  0.96804655D-05  0.93625248D-05
  0.29178900D-05  0.30338082D-04  0.29341672D-04  0.91445175D-05 -0.80254976D-05
 -0.77619119D-05 -0.24190489D-05  0.18172743D-04  0.17575886D-04  0.54776359D-05
 -0.20478117D-02 -0.19805543D-02 -0.61725227D-03 -0.19491407D-02 -0.18851240D-02
 -0.58751082D-03 -0.17470050D-04 -0.16896272D-04 -0.52658300D-05
MO    8     MO 0.0        OCC NO =    2.0000001  ORB. ENERGY =    0.000000
 -0.96106161D-01 -0.92949695D-01 -0.28968360D-01  0.15196221D-03 -0.20326173D-03
 -0.15340466D-03 -0.17233089D-03 -0.10836629D-03 -0.17167041D-04 -0.43385957D-04
 -0.27282254D-04 -0.43219674D-05 -0.39722873D-03 -0.24978809D-03 -0.39570630D-04
 -0.22853693D+00 -0.22103097D+00 -0.68885698D-01  0.15082607D-03 -0.20174205D-03
 -0.15225774D-03  0.62448580D-03  0.39269343D-03  0.62209237D-04 -0.86632292D-03
 -0.54476710D-03 -0.86300261D-04  0.45471057D-03  0.28593421D-03  0.45296782D-04
 -0.25353709D+00 -0.24521003D+00 -0.76421256D-01  0.17566299D-03 -0.23496344D-03
 -0.17733041D-03  0.75608811D-03  0.47544850D-03  0.75319030D-04  0.23112095D-03
  0.14533506D-03  0.23023515D-04  0.11361995D-02  0.71447272D-03  0.11318448D-03
 -0.27698550D-01 -0.26788832D-01 -0.83489087D-02  0.60316902D-03 -0.80678729D-03
 -0.60889440D-03  0.17327017D-02  0.10895693D-02  0.17260608D-03 -0.19790380D-02
 -0.12444722D-02 -0.19714530D-03  0.31982683D-03  0.20111570D-03  0.31860105D-04
 -0.14778239D+00 -0.14292870D+00 -0.44544631D-01  0.36194341D-03 -0.48412855D-03
 -0.36537904D-03  0.30290124D-04  0.19047243D-04  0.30174032D-05 -0.11942952D-04
 -0.75100485D-05 -0.11897179D-05 -0.57625293D-03 -0.36236330D-03 -0.57404435D-04
  0.18210324D+01  0.17612233D+01  0.54889637D+00 -0.39738866D-02  0.53153943D-02
  0.40116074D-02  0.16911678D-02  0.10634517D-02  0.16846861D-03 -0.36372438D-05
 -0.22871965D-05 -0.36233035D-06 -0.13552590D-02 -0.85222323D-03 -0.13500648D-03
  0.19141285D+01  0.18512618D+01  0.57695744D+00 -0.43950079D-02  0.58786781D-02
  0.44367261D-02 -0.14906499D-02 -0.93736063D-03 -0.14849367D-03 -0.59634749D-03
 -0.37499930D-03 -0.59406190D-04  0.15589073D-02  0.98028274D-03  0.15529326D-03
  0.26413664D+00  0.25546145D+00  0.79616177D-01 -0.64371719D-04  0.86102375D-04
  0.64982747D-04  0.13681886D-02  0.86035372D-03  0.13629448D-03  0.24734746D-02
  0.15553872D-02  0.24639947D-03  0.51383406D-03  0.32311265D-03  0.51186472D-04
  0.28237900D+00  0.27310468D+00  0.85114800D-01 -0.13401855D-03  0.17926063D-03
  0.13529067D-03 -0.21565786D-02 -0.13561145D-02 -0.21483132D-03  0.19165627D-02
  0.12051861D-02  0.19092172D-03 -0.43823385D-03 -0.27557321D-03 -0.43655426D-04
 -0.15614290D-02 -0.15101462D-02 -0.47064661D-03 -0.15559083D-02 -0.15048067D-02
 -0.46898253D-03 -0.15692448D-02 -0.15177052D-02 -0.47300243D-03 -0.17005166D-03
 -0.16446656D-03 -0.51257044D-04 -0.13851993D-03 -0.13397044D-03 -0.41752735D-04
  0.20494479D-04  0.19821368D-04  0.61774546D-05  0.61291993D-04  0.59278948D-04
  0.18474659D-04 -0.43863748D-04 -0.42423108D-04 -0.13221430D-04
MO    9     MO 0.0        OCC NO =    2.0000000  ORB. ENERGY =    0.000000
  0.67329553D-01  0.65118212D-01  0.20294502D-01 -0.12497428D-03  0.16716320D-03
  0.12616056D-03  0.27976794D-03  0.17592559D-03  0.27869568D-04 -0.58091552D-04
 -0.36529527D-04 -0.57868907D-05  0.15847068D-03  0.99650614D-04  0.15786331D-04
  0.19826951D+00  0.19175764D+00  0.59762481D-01 -0.12156718D-03  0.16260593D-03
  0.12272112D-03 -0.58885056D-03 -0.37028503D-03 -0.58659370D-04  0.96087290D-03
  0.60422266D-03  0.95719021D-04 -0.34784517D-03 -0.21873438D-03 -0.34651200D-04
 -0.18166859D+00 -0.17570195D+00 -0.54758622D-01  0.12721508D-03 -0.17016045D-03
 -0.12842263D-03  0.68439689D-03  0.43036713D-03  0.68177384D-04  0.14607976D-05
  0.91858874D-06  0.14551989D-06  0.99667176D-03  0.62673395D-03  0.99285187D-04
  0.73203478D-02  0.70799217D-02  0.22065023D-02 -0.65208231D-03  0.87221277D-03
  0.65827199D-03 -0.19961071D-02 -0.12552057D-02 -0.19884567D-03  0.22952081D-02
  0.14432884D-02  0.22864114D-03 -0.52915001D-03 -0.33274373D-03 -0.52712197D-04
  0.14751053D+00  0.14266576D+00  0.44462686D-01 -0.25387318D-03  0.33957589D-03
  0.25628299D-03 -0.23166111D-03 -0.14567473D-03 -0.23077324D-04 -0.17030802D-03
 -0.10709426D-03 -0.16965529D-04  0.61586843D-04  0.38727460D-04  0.61350803D-05
 -0.19183575D+01 -0.18553518D+01 -0.57823212D+00  0.54747841D-02 -0.73229660D-02
 -0.55267517D-02  0.20526729D-02  0.12907758D-02  0.20448057D-03  0.60206434D-03
  0.37859421D-03  0.59975684D-04 -0.16139765D-02 -0.10149117D-02 -0.16077907D-03
  0.18366250D+01  0.17763038D+01  0.55359629D+00 -0.55132117D-02  0.73743660D-02
  0.55655441D-02  0.23384676D-02  0.14704912D-02  0.23295051D-03  0.23722934D-03
  0.14917618D-03  0.23632013D-04 -0.15931170D-02 -0.10017947D-02 -0.15870111D-03
 -0.22913671D+00 -0.22161105D+00 -0.69066485D-01 -0.36145248D-04  0.48347190D-04
  0.36488345D-04 -0.12847358D-02 -0.80787632D-03 -0.12798118D-03 -0.26100244D-02
 -0.16412534D-02 -0.26000211D-03 -0.49462186D-03 -0.31103150D-03 -0.49272615D-04
  0.18503213D+00  0.17895502D+00  0.55772462D-01  0.14602614D-03 -0.19532175D-03
 -0.14741224D-03 -0.19835198D-02 -0.12472905D-02 -0.19759177D-03  0.18285801D-02
  0.11498603D-02  0.18215718D-03 -0.21342592D-03 -0.13420794D-03 -0.21260793D-04
  0.16210245D-02  0.15677843D-02  0.48860990D-03 -0.15068237D-02 -0.14573343D-02
 -0.45418745D-03 -0.14416021D-02 -0.13942548D-02 -0.43452831D-03  0.17445301D-03
  0.16872336D-03  0.52583700D-04  0.97474502D-04  0.94273094D-04  0.29380806D-04
 -0.15440761D-03 -0.14933631D-03 -0.46541606D-04 -0.11832003D-03 -0.11443398D-03
 -0.35664074D-04  0.46254320D-04  0.44735165D-04  0.13941997D-04
MO   10     MO 0.0        OCC NO =    1.9995817  ORB. ENERGY =    0.000000
  0.68248301D+00  0.66006786D+00  0.20571432D+00  0.16580182D+00 -0.22177333D+00
 -0.16737564D+00  0.25406111D+00  0.15976044D+00  0.25308738D-01  0.35622185D-01
  0.22400186D-01  0.35485658D-02  0.15668516D+00  0.98527832D-01  0.15608464D-01
 -0.70459734D+00 -0.68145587D+00 -0.21238003D+00 -0.16700862D+00  0.22338752D+00
  0.16859390D+00  0.16174457D+00  0.10170933D+00  0.16112466D-01 -0.61930675D-02
 -0.38943670D-02 -0.61693317D-03  0.96950822D-01  0.60965279D-01  0.96579244D-02
  0.14793036D-01  0.14307181D-01  0.44589233D-02  0.33388722D-02 -0.44660113D-02
 -0.33705654D-02  0.30233462D-02  0.19011612D-02  0.30117588D-03 -0.23173916D-02
 -0.14572380D-02 -0.23085099D-03 -0.34417549D-02 -0.21642678D-02 -0.34285638D-03
 -0.19915062D-02 -0.19260981D-02 -0.60028066D-03 -0.43065884D-04  0.57604099D-04