 opt aspargine b3lyp
GAUSSIAN             35 MOL ORBITALS    159 PRIMITIVES       17 NUCLEI
  O    1    (CENTRE  1)   0.95172652  3.12141869 -1.55075169  CHARGE =  8.0
  O    2    (CENTRE  2)   4.40852410  1.82498141  0.94168677  CHARGE =  8.0
  O    3    (CENTRE  3)  -3.87504932  1.81359923  1.85207255  CHARGE =  8.0
  N    4    (CENTRE  4)   3.34212072 -3.44539263 -0.10149846  CHARGE =  7.0
  N    5    (CENTRE  5)  -4.51184407 -0.86625909 -1.70246475  CHARGE =  7.0
  C    6    (CENTRE  6)   1.32922409 -1.45450569 -0.61391486  CHARGE =  6.0
  C    7    (CENTRE  7)  -0.93700041 -1.87015912  1.26264169  CHARGE =  6.0
  C    8    (CENTRE  8)   2.45215018  1.29547120 -0.28372160  CHARGE =  6.0
  C    9    (CENTRE  9)  -3.25634804 -0.11806241  0.63032591  CHARGE =  6.0
  H   10    (CENTRE 10)   0.63463760 -1.67873521 -2.57638292  CHARGE =  1.0
  H   11    (CENTRE 11)  -1.49915127 -3.87676478  1.15628731  CHARGE =  1.0
  H   12    (CENTRE 12)  -0.31816763 -1.47022354  3.21297583  CHARGE =  1.0
  H   13    (CENTRE 13)   4.37293580 -2.66180435  1.44127317  CHARGE =  1.0
  H   14    (CENTRE 14)   4.65550544 -3.20640144 -1.60457958  CHARGE =  1.0
  H   15    (CENTRE 15)  -4.60385312 -2.82966421 -1.95574467  CHARGE =  1.0
  H   16    (CENTRE 16)  -6.32399842 -0.07612536 -1.85302103  CHARGE =  1.0
  H   17    (CENTRE 17)   1.86038968  4.78482240 -1.10911347  CHARGE =  1.0
CENTRE ASSIGNMENTS    1  1  1  1  1  1  1  1  1  1  1  1  1  1  1  2  2  2  2  2
CENTRE ASSIGNMENTS    2  2  2  2  2  2  2  2  2  2  3  3  3  3  3  3  3  3  3  3
CENTRE ASSIGNMENTS    3  3  3  3  3  4  4  4  4  4  4  4  4  4  4  4  4  4  4  4
CENTRE ASSIGNMENTS    5  5  5  5  5  5  5  5  5  5  5  5  5  5  5  6  6  6  6  6
CENTRE ASSIGNMENTS    6  6  6  6  6  6  6  6  6  6  7  7  7  7  7  7  7  7  7  7
CENTRE ASSIGNMENTS    7  7  7  7  7  8  8  8  8  8  8  8  8  8  8  8  8  8  8  8
CENTRE ASSIGNMENTS    9  9  9  9  9  9  9  9  9  9  9  9  9  9  9 10 10 10 11 11
CENTRE ASSIGNMENTS   11 12 12 12 13 13 13 14 14 14 15 15 15 16 16 16 17 17 17
TYPE ASSIGNMENTS      1  1  1  1  1  1  2  2  2  3  3  3  4  4  4  1  1  1  1  1
TYPE ASSIGNMENTS      1  2  2  2  3  3  3  4  4  4  1  1  1  1  1  1  2  2  2  3
TYPE ASSIGNMENTS      3  3  4  4  4  1  1  1  1  1  1  2  2  2  3  3  3  4  4  4
TYPE ASSIGNMENTS      1  1  1  1  1  1  2  2  2  3  3  3  4  4  4  1  1  1  1  1
TYPE ASSIGNMENTS      1  2  2  2  3  3  3  4  4  4  1  1  1  1  1  1  2  2  2  3
TYPE ASSIGNMENTS      3  3  4  4  4  1  1  1  1  1  1  2  2  2  3  3  3  4  4  4
TYPE ASSIGNMENTS      1  1  1  1  1  1  2  2  2  3  3  3  4  4  4  1  1  1  1  1
TYPE ASSIGNMENTS      1  1  1  1  1  1  1  1  1  1  1  1  1  1  1  1  1  1  1
EXPONENTS  0.1307093D+03 0.2380887D+02 0.6443608D+01 0.5033151D+01 0.1169596D+01
EXPONENTS  0.3803890D+00 0.5033151D+01 0.1169596D+01 0.3803890D+00 0.5033151D+01
EXPONENTS  0.1169596D+01 0.3803890D+00 0.5033151D+01 0.1169596D+01 0.3803890D+00
EXPONENTS  0.1307093D+03 0.2380887D+02 0.6443608D+01 0.5033151D+01 0.1169596D+01
EXPONENTS  0.3803890D+00 0.5033151D+01 0.1169596D+01 0.3803890D+00 0.5033151D+01
EXPONENTS  0.1169596D+01 0.3803890D+00 0.5033151D+01 0.1169596D+01 0.3803890D+00
EXPONENTS  0.1307093D+03 0.2380887D+02 0.6443608D+01 0.5033151D+01 0.1169596D+01
EXPONENTS  0.3803890D+00 0.5033151D+01 0.1169596D+01 0.3803890D+00 0.5033151D+01
EXPONENTS  0.1169596D+01 0.3803890D+00 0.5033151D+01 0.1169596D+01 0.3803890D+00
EXPONENTS  0.9910617D+02 0.1805231D+02 0.4885660D+01 0.3780456D+01 0.8784966D+00
EXPONENTS  0.2857144D+00 0.3780456D+01 0.8784966D+00 0.2857144D+00 0.3780456D+01
EXPONENTS  0.8784966D+00 0.2857144D+00 0.3780456D+01 0.8784966D+00 0.2857144D+00
EXPONENTS  0.9910617D+02 0.1805231D+02 0.4885660D+01 0.3780456D+01 0.8784966D+00
EXPONENTS  0.2857144D+00 0.3780456D+01 0.8784966D+00 0.2857144D+00 0.3780456D+01
EXPONENTS  0.8784966D+00 0.2857144D+00 0.3780456D+01 0.8784966D+00 0.2857144D+00
EXPONENTS  0.7161684D+02 0.1304510D+02 0.3530512D+01 0.2941249D+01 0.6834831D+00
EXPONENTS  0.2222899D+00 0.2941249D+01 0.6834831D+00 0.2222899D+00 0.2941249D+01
EXPONENTS  0.6834831D+00 0.2222899D+00 0.2941249D+01 0.6834831D+00 0.2222899D+00
EXPONENTS  0.7161684D+02 0.1304510D+02 0.3530512D+01 0.2941249D+01 0.6834831D+00
EXPONENTS  0.2222899D+00 0.2941249D+01 0.6834831D+00 0.2222899D+00 0.2941249D+01
EXPONENTS  0.6834831D+00 0.2222899D+00 0.2941249D+01 0.6834831D+00 0.2222899D+00
EXPONENTS  0.7161684D+02 0.1304510D+02 0.3530512D+01 0.2941249D+01 0.6834831D+00
EXPONENTS  0.2222899D+00 0.2941249D+01 0.6834831D+00 0.2222899D+00 0.2941249D+01
EXPONENTS  0.6834831D+00 0.2222899D+00 0.2941249D+01 0.6834831D+00 0.2222899D+00
EXPONENTS  0.7161684D+02 0.1304510D+02 0.3530512D+01 0.2941249D+01 0.6834831D+00
EXPONENTS  0.2222899D+00 0.2941249D+01 0.6834831D+00 0.2222899D+00 0.2941249D+01
EXPONENTS  0.6834831D+00 0.2222899D+00 0.2941249D+01 0.6834831D+00 0.2222899D+00
EXPONENTS  0.3425251D+01 0.6239137D+00 0.1688554D+00 0.3425251D+01 0.6239137D+00
EXPONENTS  0.1688554D+00 0.3425251D+01 0.6239137D+00 0.1688554D+00 0.3425251D+01
EXPONENTS  0.6239137D+00 0.1688554D+00 0.3425251D+01 0.6239137D+00 0.1688554D+00
EXPONENTS  0.3425251D+01 0.6239137D+00 0.1688554D+00 0.3425251D+01 0.6239137D+00
EXPONENTS  0.1688554D+00 0.3425251D+01 0.6239137D+00 0.1688554D+00
MO    1     MO 0.0        OCC NO =    2.0000000  ORB. ENERGY =  -18.939950
  0.42244390D+01  0.40856935D+01  0.12733322D+01 -0.68588871D-02  0.91743155D-02
  0.69239928D-02  0.58131649D-02  0.36554741D-02  0.57908851D-03  0.60712323D-03
  0.38177538D-03  0.60479634D-04  0.39953475D-02  0.25123817D-02  0.39800347D-03
  0.36650835D-02  0.35447092D-02  0.11047310D-02 -0.44144061D-04  0.59046247D-04
  0.44563084D-04 -0.23213842D-03 -0.14597487D-03 -0.23124872D-04  0.10593848D-02
  0.66616959D-03  0.10553245D-03 -0.30510397D-03 -0.19185756D-03 -0.30393462D-04
  0.35312394D-03  0.34152610D-03  0.10643877D-03 -0.93283098D-05  0.12477368D-04
  0.94168557D-05  0.28869889D-04  0.18154161D-04  0.28759241D-05 -0.24329955D-04
 -0.15299329D-04 -0.24236707D-05 -0.33415292D-04 -0.21012432D-04 -0.33287223D-05
  0.55994489D-05  0.54155432D-05  0.16877883D-05 -0.21986366D-05  0.29408541D-05
  0.22195065D-05 -0.19187964D-04 -0.12065907D-04 -0.19114423D-05 -0.62433608D-04
 -0.39259928D-04 -0.62194323D-05  0.18475311D-04  0.11617771D-04  0.18404501D-05
 -0.65084849D-05 -0.62947232D-05 -0.19617903D-05 -0.35908208D-05  0.48030129D-05
  0.36249054D-05  0.13387477D-04  0.84184050D-05  0.13336168D-05  0.13237697D-04
  0.83242192D-05  0.13186962D-05  0.89640916D-05  0.56368613D-05  0.89297354D-06
 -0.69316938D-04 -0.67040324D-04 -0.20893541D-04 -0.53061514D-04  0.70974061D-04
  0.53565183D-04 -0.96659492D-04 -0.60782082D-04 -0.96289030D-05  0.24196320D-03
  0.15215295D-03  0.24103584D-04 -0.17105841D-03 -0.10756612D-03 -0.17040281D-04
 -0.25552859D-04 -0.24713613D-04 -0.77021538D-05 -0.66467473D-05  0.88905615D-05
  0.67098394D-05  0.18719634D-04  0.11771408D-04  0.18647889D-05  0.46841949D-04
  0.29455475D-04  0.46662421D-05  0.56883875D-05  0.35770107D-05  0.56665859D-06
  0.16002201D-02  0.15476633D-02  0.48233904D-03  0.77307757D-03 -0.10340537D-02
 -0.78041575D-03  0.25789073D-02  0.16216861D-02  0.25690233D-03 -0.28931443D-02
 -0.18192868D-02 -0.28820559D-03  0.21494021D-02  0.13516017D-02  0.21411642D-03
  0.38103973D-04  0.36852504D-04  0.11485316D-04  0.13299042D-04 -0.17788544D-04
 -0.13425279D-04 -0.44065619D-04 -0.27709644D-04 -0.43896731D-05 -0.59189301D-04
 -0.37219821D-04 -0.58962450D-05  0.34804078D-04  0.21885738D-04  0.34670686D-05
 -0.47591755D-04 -0.46028674D-04 -0.14345127D-04  0.43778561D-05  0.42340719D-05
  0.13195753D-05 -0.24945310D-05 -0.24126018D-05 -0.75190260D-06 -0.25110179D-04
 -0.24285472D-04 -0.75687209D-05  0.41910770D-06  0.40534272D-06  0.12632762D-06
  0.12762529D-06  0.12343363D-06  0.38468870D-07 -0.53758461D-06 -0.51992843D-06
 -0.16203898D-06 -0.17540613D-02 -0.16964517D-02 -0.52870991D-03
MO    2     MO 0.0        OCC NO =    2.0000000  ORB. ENERGY =  -18.875785
 -0.39828226D-02 -0.38520126D-02 -0.12005041D-02 -0.54712202D-04  0.73181990D-04
  0.55231540D-04  0.68998956D-03  0.43388395D-03  0.68734507D-04  0.51186609D-03
  0.32187514D-03  0.50990429D-04  0.38824308D-03  0.24413767D-03  0.38675509D-04
  0.42246711D+01  0.40859179D+01  0.12734022D+01 -0.68945135D-02  0.92219687D-02
  0.69599574D-02 -0.80395519D-02 -0.50554860D-02 -0.80087392D-03 -0.21677787D-02
 -0.13631574D-02 -0.21594703D-03 -0.50381989D-02 -0.31681547D-02 -0.50188893D-03
  0.16385583D-03  0.15847422D-03  0.49389493D-04 -0.12083395D-05  0.16162517D-05
  0.12198093D-05  0.48686275D-05  0.30615236D-05  0.48499678D-06 -0.22081153D-05
 -0.13885222D-05 -0.21996524D-06 -0.44439117D-05 -0.27944510D-05 -0.44268798D-06
 -0.51422422D-04 -0.49733528D-04 -0.15499768D-04 -0.23327090D-04  0.31201867D-04
  0.23548515D-04  0.18163387D-03  0.11421625D-03  0.18093773D-04  0.54521066D-04
  0.34284310D-04  0.54312107D-05  0.13827661D-03  0.86952042D-04  0.13774664D-04
 -0.14248715D-05 -0.13780737D-05 -0.42948538D-06 -0.72827003D-06  0.97412000D-06
  0.73518289D-06  0.53153307D-05  0.33424226D-05  0.52949590D-06  0.10166527D-05
  0.63929850D-06  0.10127562D-06  0.23604182D-05  0.14842943D-05  0.23513716D-06
 -0.57640416D-04 -0.55747301D-04 -0.17373999D-04 -0.23724882D-04  0.31733947D-04
  0.23950083D-04  0.37154471D-03  0.23363728D-03  0.37012071D-04 -0.69101533D-04
 -0.43452898D-04 -0.68836691D-05  0.24076982D-03  0.15140253D-03  0.23984704D-04
 -0.16884100D-04 -0.16329567D-04 -0.50892127D-05 -0.34668564D-05  0.46372005D-05
  0.34997644D-05  0.14546729D-04  0.91473733D-05  0.14490976D-05  0.30753698D-04
  0.19338751D-04  0.30635830D-05 -0.20063768D-04 -0.12616636D-04 -0.19986870D-05
  0.18430842D-02  0.17825508D-02  0.55554323D-03  0.12599546D-02 -0.16852911D-02
 -0.12719144D-02 -0.52272266D-02 -0.32870203D-02 -0.52071925D-03 -0.14321196D-02
 -0.90055520D-03 -0.14266307D-03 -0.32713944D-02 -0.20571406D-02 -0.32588563D-03
  0.11299558D-04  0.10928441D-04  0.34059176D-05  0.42948427D-05 -0.57446991D-05
 -0.43356101D-05 -0.19245467D-04 -0.12102066D-04 -0.19171706D-05 -0.64506808D-05
 -0.40563612D-05 -0.64259576D-06  0.67816036D-05  0.42644543D-05  0.67556121D-06
  0.79371761D-05  0.76764912D-05  0.23924270D-05  0.30201213D-05  0.29209298D-05
  0.91032624D-06  0.10787807D-04  0.10433497D-04  0.32516652D-05 -0.11118841D-03
 -0.10753659D-03 -0.33514457D-04 -0.13546132D-05 -0.13101230D-05 -0.40830810D-06
  0.38472063D-06  0.37208505D-06  0.11596266D-06  0.78623498D-07  0.76041224D-07
  0.23698728D-07 -0.32908810D-04 -0.31827969D-04 -0.99193876D-05
MO    3     MO 0.0        OCC NO =    2.0000000  ORB. ENERGY =  -18.860559
 -0.39435358D-03 -0.38140162D-03 -0.11886622D-03 -0.39715842D-05  0.53123147D-05
  0.40092832D-05 -0.52718138D-04 -0.33150580D-04 -0.52516088D-05 -0.18619187D-04
 -0.11708244D-04 -0.18547826D-05  0.14369550D-04  0.90359588D-05  0.14314477D-05
 -0.16782331D-03 -0.16231140D-03 -0.50585374D-04 -0.10678016D-05  0.14282709D-05
  0.10779373D-05 -0.95024187D-06 -0.59753759D-06 -0.94659993D-07 -0.26551778D-05
 -0.16696471D-05 -0.26450015D-06 -0.67969582D-05 -0.42741097D-05 -0.67709079D-06
  0.42246914D+01  0.40859376D+01  0.12734083D+01 -0.68924479D-02  0.92192059D-02
  0.69578722D-02  0.25233673D-02  0.15867611D-02  0.25136962D-03 -0.79426008D-02
 -0.49945205D-02 -0.79121596D-03 -0.50550489D-02 -0.31787504D-02 -0.50356747D-03
 -0.26470772D-05 -0.25601379D-05 -0.79788315D-06 -0.12272319D-05  0.16415218D-05
  0.12388810D-05 -0.77035981D-05 -0.48442292D-05 -0.76740729D-06  0.15085136D-05
  0.94859384D-06  0.15027320D-06 -0.31636160D-06 -0.19893666D-06 -0.31514910D-07
 -0.97760471D-04 -0.94549672D-04 -0.29467003D-04 -0.62888495D-04  0.84118443D-04
  0.63485444D-04 -0.33757367D-03 -0.21227538D-03 -0.33627987D-04  0.58441442D-03
  0.36749547D-03  0.58217457D-04  0.22662845D-03  0.14251005D-03  0.22575986D-04
 -0.13713080D-04 -0.13262694D-04 -0.41334023D-05 -0.45579340D-05  0.60966050D-05
  0.46011987D-05 -0.28006737D-04 -0.17611388D-04 -0.27899397D-05 -0.44943800D-05
 -0.28261868D-05 -0.44771546D-06 -0.46201703D-05 -0.29052871D-05 -0.46024629D-06
 -0.69531204D-04 -0.67247553D-04 -0.20958125D-04 -0.31858085D-04  0.42612762D-04
  0.32160488D-04  0.19695835D-04  0.12385269D-04  0.19620347D-05  0.31975325D-03
  0.20106942D-03  0.31852775D-04  0.36020878D-03  0.22650895D-03  0.35882823D-04
 -0.13402354D-04 -0.12962174D-04 -0.40397434D-05 -0.34846319D-05  0.46609766D-05
  0.35177086D-05 -0.28452327D-04 -0.17891587D-04 -0.28343279D-05 -0.54282485D-06
 -0.34134283D-06 -0.54074440D-07  0.20631359D-06  0.12973552D-06  0.20552287D-07
  0.18638923D-02  0.18026755D-02  0.56181522D-03  0.12710008D-02 -0.17000662D-02
 -0.12830653D-02  0.16838202D-02  0.10588313D-02  0.16773667D-03 -0.51844852D-02
 -0.32601434D-02 -0.51646149D-03 -0.32298355D-02 -0.20310073D-02 -0.32174567D-03
 -0.70834948D-05 -0.68508478D-05 -0.21351100D-05  0.93366010D-05  0.90299540D-05
  0.28142422D-05 -0.51032340D-04 -0.49356257D-04 -0.15382190D-04  0.19216260D-06
  0.18585130D-06  0.57921734D-07  0.51844279D-06  0.50141529D-06  0.15626924D-06
  0.25889505D-05  0.25039202D-05  0.78036256D-06 -0.47507490D-04 -0.45947176D-04
 -0.14319728D-04 -0.78991723D-06 -0.76397355D-06 -0.23809719D-06
MO    4     MO 0.0        OCC NO =    2.0000000  ORB. ENERGY =  -14.143575
 -0.13985803D-04 -0.13526460D-04 -0.42156067D-05 -0.23500149D-05  0.31433347D-05
  0.23723216D-05 -0.30270754D-04 -0.19035063D-04 -0.30154737D-05 -0.18098763D-04
 -0.11380988D-04 -0.18029397D-05  0.17002979D-05  0.10691929D-05  0.16937813D-06
 -0.29997465D-05 -0.29012242D-05 -0.90418486D-06 -0.12343692D-05  0.16510685D-05
  0.12460860D-05 -0.45796920D-05 -0.28798332D-05 -0.45621397D-06 -0.31447272D-05
 -0.19774889D-05 -0.31326746D-06 -0.26412672D-05 -0.16608997D-05 -0.26311442D-06
 -0.21921668D-03 -0.21201683D-03 -0.66076386D-04 -0.72588626D-04  0.97093151D-04
  0.73277650D-04 -0.58777399D-03 -0.36960806D-03 -0.58552126D-04 -0.72197993D-04
 -0.45400036D-04 -0.71921284D-05 -0.71093782D-03 -0.44705678D-03 -0.70821304D-04
 -0.16017868D-03 -0.15491785D-03 -0.48281127D-04  0.21236823D-05 -0.28405967D-05
 -0.21438407D-05  0.29962653D-05  0.18841320D-05  0.29847817D-06 -0.48303311D-05
 -0.30374418D-05 -0.48118181D-06  0.21251042D-05  0.13363226D-05  0.21169594D-06
  0.34286713D+01  0.33160616D+01  0.10334715D+01 -0.69682786D-02  0.93206356D-02
  0.70344227D-02 -0.26249782D-02 -0.16506567D-02 -0.26149176D-03 -0.17099263D-02
 -0.10752475D-02 -0.17033727D-03  0.36005802D-02  0.22641414D-02  0.35867804D-03
 -0.33956738D-04 -0.32841479D-04 -0.10235254D-04 -0.17067447D-04  0.22829089D-04
  0.17229454D-04 -0.15922148D-04 -0.10012274D-04 -0.15861124D-05  0.67636506D-05
  0.42531650D-05  0.67377280D-06 -0.43202352D-04 -0.27166798D-04 -0.43036772D-05
 -0.18851625D-04 -0.18232471D-04 -0.56822649D-05 -0.39289976D-04  0.52553517D-04
  0.39662923D-04 -0.18500241D-03 -0.11633448D-03 -0.18429336D-04  0.10513794D-04
  0.66113561D-05  0.10473499D-05 -0.14878852D-03 -0.93562216D-04 -0.14821827D-04
 -0.48030389D-06 -0.46452902D-06 -0.14477340D-06  0.10652461D-05 -0.14248527D-05
 -0.10753576D-05 -0.76756824D-05 -0.48266751D-05 -0.76462643D-06  0.52561103D-05
  0.33051832D-05  0.52359655D-06 -0.44938780D-05 -0.28258711D-05 -0.44766546D-06
  0.15777409D-02  0.15259223D-02  0.47556332D-03  0.10049983D-02 -0.13442665D-02
 -0.10145380D-02  0.22930269D-02  0.14419169D-02  0.22842386D-03  0.13447975D-02
  0.84564475D-03  0.13396434D-03  0.40354361D-02  0.25375905D-02  0.40199697D-03
 -0.48170185D-04 -0.46588105D-04 -0.14519478D-04  0.45540500D-04  0.44044789D-04
  0.13726837D-04 -0.19410195D-04 -0.18772695D-04 -0.58506291D-05  0.13172961D-05
  0.12740314D-05  0.39705994D-06  0.13616486D-05  0.13169272D-05  0.41042870D-06
 -0.21757799D-02 -0.21043196D-02 -0.65582450D-03 -0.21688183D-02 -0.20975867D-02
 -0.65372614D-03  0.11505957D-05  0.11128061D-05  0.34681304D-06
MO    5     MO 0.0        OCC NO =    2.0000000  ORB. ENERGY =  -14.114322
  0.24321246D-04  0.23522451D-04  0.73309204D-05  0.35836080D-05 -0.47933653D-05
 -0.36176243D-05  0.58848461D-04  0.37005491D-04  0.58622915D-05  0.77122135D-04
  0.48496468D-04  0.76826553D-05  0.24364927D-04  0.15321320D-04  0.24271545D-05
 -0.12584504D-03 -0.12171184D-03 -0.37932265D-04 -0.21441651D-04  0.28679940D-04
  0.21645179D-04  0.12903278D-03  0.81139274D-04  0.12853824D-04 -0.24250837D-03
 -0.15249577D-03 -0.24157892D-04  0.13351714D-03  0.83959159D-04  0.13300541D-04
 -0.54362865D-05 -0.52577397D-05 -0.16386078D-05 -0.14422967D-05  0.19291883D-05
  0.14559872D-05  0.19763755D-04  0.12427980D-04  0.19688008D-05  0.28701336D-05
  0.18048170D-05  0.28591334D-06 -0.13032804D-04 -0.81953768D-05 -0.12982854D-05
  0.34290060D+01  0.33163854D+01  0.10335725D+01 -0.67854798D-02  0.90761275D-02
  0.68498888D-02  0.26645179D-02  0.16755203D-02  0.26543057D-03  0.60560721D-02
  0.38082206D-02  0.60328613D-03 -0.81480695D-03 -0.51237247D-03 -0.81168408D-04
  0.16842219D-03  0.16289061D-03  0.50765889D-04 -0.71253946D-06  0.95307909D-06
  0.71930300D-06 -0.10094005D-04 -0.63473815D-05 -0.10055319D-05  0.94487167D-05
  0.59416066D-05  0.94125031D-06  0.13362692D-04  0.84028194D-05  0.13311478D-05
  0.15839701D-02  0.15319470D-02  0.47744096D-03  0.92306954D-03 -0.12346801D-02
 -0.93183148D-03 -0.31395656D-02 -0.19742431D-02 -0.31275328D-03  0.30308102D-02
  0.19058548D-02  0.30191942D-03 -0.75806101D-03 -0.47668911D-03 -0.75515563D-04
 -0.24380183D-04 -0.23579452D-04 -0.73486852D-05 -0.52268150D-04  0.69912873D-04
  0.52764288D-04  0.13389280D-03  0.84195386D-04  0.13337964D-04 -0.75141017D-04
 -0.47250688D-04 -0.74853028D-05 -0.65592676D-04 -0.41246435D-04 -0.65341282D-05
 -0.75568095D-04 -0.73086171D-04 -0.22777767D-04 -0.68943913D-04  0.92218054D-04
  0.69598341D-04  0.15751940D-03  0.99052424D-04  0.15691568D-04 -0.29390143D-03
 -0.18481310D-03 -0.29277501D-04  0.57568414D-04  0.36200564D-04  0.57347775D-05
  0.34795850D-04  0.33653031D-04  0.10488180D-04  0.14530179D-04 -0.19435288D-04
 -0.14668102D-04 -0.79324683D-04 -0.49881489D-04 -0.79020659D-05 -0.53214456D-05
 -0.33462678D-05 -0.53010504D-06  0.43266316D-04  0.27207021D-04  0.43100492D-05
  0.11224906D-03  0.10856240D-03  0.33834159D-04 -0.52767372D-04 -0.51034305D-04
 -0.15905164D-04  0.16079454D-04  0.15551348D-04  0.48466758D-05 -0.21497674D-02
 -0.20791614D-02 -0.64798380D-03 -0.21530702D-02 -0.20823557D-02 -0.64897932D-03
  0.17851137D-05  0.17264843D-05  0.53806973D-06 -0.16622834D-05 -0.16076881D-05
 -0.50104616D-06 -0.10958092D-05 -0.10598190D-05 -0.33029929D-06
MO    6     MO 0.0        OCC NO =    2.0000000  ORB. ENERGY =  -10.101458
  0.26179121D-02  0.25319306D-02  0.78909218D-03  0.12907957D-02 -0.17265435D-02
 -0.13030482D-02 -0.32681102D-02 -0.20550754D-02 -0.32555847D-03  0.48107410D-02
  0.30251230D-02  0.47923031D-03 -0.28397467D-02 -0.17857089D-02 -0.28288630D-03
  0.23428731D-02  0.22659248D-02  0.70618980D-03  0.18052138D-02 -0.24146193D-02
 -0.18223492D-02  0.44633198D-02  0.28066552D-02  0.44462135D-03  0.11047370D-02
  0.69468829D-03  0.11005030D-03  0.28047771D-02  0.17637191D-02  0.27940274D-03
 -0.35378652D-04 -0.34216692D-04 -0.10663848D-04 -0.19091626D-04  0.25536593D-04
  0.19272847D-04  0.29860755D-04  0.18777244D-04  0.29746310D-05 -0.75571147D-04
 -0.47521165D-04 -0.75281509D-05 -0.50937805D-04 -0.32031059D-04 -0.50742578D-05
 -0.16431117D-03 -0.15891461D-03 -0.49526744D-04 -0.12043136D-03  0.16108667D-03
  0.12157451D-03 -0.24025945D-05 -0.15108159D-05 -0.23933862D-06  0.17077355D-03
  0.10738699D-03  0.17011904D-04  0.70749688D-04  0.44489302D-04  0.70478530D-05
 -0.88028322D-05 -0.85137160D-05 -0.26533534D-05 -0.18489521D-05  0.24731228D-05
  0.18665026D-05  0.26461934D-04  0.16639974D-04  0.26360514D-05  0.21283281D-04
  0.13383498D-04  0.21201710D-05 -0.63833546D-05 -0.40140247D-05 -0.63588894D-06
 -0.33181836D-01 -0.32092027D-01 -0.10001683D-01  0.11183310D-02 -0.14958581D-02
 -0.11289464D-02 -0.18583483D-02 -0.11685793D-02 -0.18512259D-03 -0.40601638D-02
 -0.25531400D-02 -0.40446026D-03 -0.57002107D-03 -0.35844454D-03 -0.56783638D-04
 -0.12173452D-02 -0.11773632D-02 -0.36693270D-03 -0.38023937D-04  0.50860088D-04
  0.38384867D-04 -0.11646962D-04 -0.73239222D-05 -0.11602323D-05 -0.24867312D-03
 -0.15637233D-03 -0.24772004D-04  0.25550904D-05  0.16067094D-05  0.25452977D-06
  0.26838512D+01  0.25957040D+01  0.80896757D+00 -0.60404052D-02  0.80795299D-02
  0.60977418D-02  0.55168075D-03  0.34691166D-03  0.54956635D-04  0.99501099D-04
  0.62568961D-04  0.99119746D-05  0.37752209D-03  0.23739602D-03  0.37607518D-04
 -0.55315192D-02 -0.53498445D-02 -0.16673129D-02  0.28053243D-04 -0.37523478D-04
 -0.28319529D-04 -0.94521715D-04 -0.59437791D-04 -0.94159447D-05 -0.12873307D-03
 -0.80950807D-04 -0.12823968D-04 -0.64722595D-05 -0.40699305D-05 -0.64474537D-06
  0.62848073D-05  0.60783920D-05  0.18943693D-05 -0.57684545D-04 -0.55789981D-04
 -0.17387300D-04 -0.81899003D-04 -0.79209150D-04 -0.24686032D-04 -0.17677310D-03
 -0.17096724D-03 -0.53283022D-04 -0.82484224D-04 -0.79775150D-04 -0.24862430D-04
  0.48903391D-07  0.47297231D-07  0.14740481D-07  0.93498025D-06  0.90427219D-06
  0.28182214D-06 -0.47093953D-03 -0.45547221D-03 -0.14195079D-03
MO    7     MO 0.0        OCC NO =    2.0000000  ORB. ENERGY =  -10.089570
  0.97175310D-04  0.93983729D-04  0.29290623D-04  0.13456607D-04 -0.17999300D-04
 -0.13584340D-04  0.32545226D-03  0.20465311D-03  0.32420492D-04  0.13348745D-03
  0.83940493D-04  0.13297584D-04 -0.70775981D-04 -0.44505836D-04 -0.70504722D-05
  0.28324290D-04  0.27394020D-04  0.85375195D-05  0.16472060D-04 -0.22032710D-04
 -0.16628415D-04  0.33480276D-04  0.21053296D-04  0.33351958D-05  0.41121778D-04
  0.25858477D-04  0.40964172D-05  0.61486439D-04  0.38664323D-04  0.61250784D-05
  0.23591406D-02  0.22816581D-02  0.71109316D-03  0.18081327D-02 -0.24185235D-02
 -0.18252958D-02 -0.13509109D-02 -0.84948906D-03 -0.13457334D-03  0.43041064D-02
  0.27065376D-02  0.42876103D-03  0.28934351D-02  0.18194696D-02  0.28823456D-03
  0.70376781D-04  0.68065358D-04  0.21212999D-04  0.22369689D-04 -0.29921267D-04
 -0.22582026D-04  0.11073784D-03  0.69634924D-04  0.11031342D-04 -0.55563613D-04
 -0.34939891D-04 -0.55350657D-05 -0.31740029D-04 -0.19958982D-04 -0.31618380D-05
  0.25814353D-02  0.24966518D-02  0.77809732D-03  0.12423281D-02 -0.16617142D-02
 -0.12541205D-02 -0.26723914D-02 -0.16804714D-02 -0.26621491D-03 -0.18879959D-02
 -0.11872225D-02 -0.18807599D-03 -0.48287936D-02 -0.30364750D-02 -0.48102865D-03
 -0.33460013D-02 -0.32361068D-02 -0.10085531D-02 -0.14508958D-04  0.19406903D-04
  0.14646679D-04  0.83326493D-04  0.52397935D-04  0.83007132D-05 -0.15265395D-03
 -0.95992901D-04 -0.15206888D-04  0.40176335D-04  0.25263958D-04  0.40022353D-05
 -0.20331639D-01 -0.19663877D-01 -0.61283714D-02  0.10947890D-02 -0.14643687D-02
 -0.11051809D-02  0.35390205D-02  0.22254311D-02  0.35254567D-03 -0.27982677D-02
 -0.17596258D-02 -0.27875429D-03  0.86209065D-03  0.54210574D-03  0.85878657D-04
  0.56125734D-02  0.54282367D-02  0.16917443D-02 -0.32963560D-05  0.44091424D-05
  0.33276456D-05  0.18881981D-03  0.11873497D-03  0.18809613D-04 -0.42049878D-04
 -0.26442091D-04 -0.41888715D-05  0.11562003D-04  0.72704979D-05  0.11517690D-05
  0.26838000D+01  0.25956545D+01  0.80895213D+00 -0.61766603D-02  0.82617822D-02
  0.62352902D-02 -0.13143788D-03 -0.82651666D-04 -0.13093412D-04  0.45823865D-03
  0.28815276D-03  0.45648238D-04 -0.27920490D-03 -0.17557153D-03 -0.27813481D-04
 -0.46283737D-04 -0.44763615D-04 -0.13950864D-04 -0.15692167D-05 -0.15176781D-05
 -0.47299397D-06  0.36671263D-05  0.35466849D-05  0.11053468D-05 -0.38130301D-05
 -0.36877967D-05 -0.11493251D-05 -0.23962092D-05 -0.23175092D-05 -0.72226640D-06
 -0.13337068D-03 -0.12899031D-03 -0.40200647D-04 -0.17363596D-03 -0.16793314D-03
 -0.52337424D-04 -0.16985535D-04 -0.16427670D-04 -0.51197871D-05
MO    8     MO 0.0        OCC NO =    2.0000000  ORB. ENERGY =  -10.061515
 -0.57400272D-04 -0.55515044D-04 -0.17301614D-04 -0.58928635D-04  0.78821810D-04
  0.59487996D-04  0.83999677D-04  0.52821251D-04  0.83677736D-05 -0.16563037D-03
 -0.10415282D-03 -0.16499557D-04  0.18601881D-04  0.11697362D-04  0.18530586D-05
 -0.80039840D-04 -0.77411049D-04 -0.24125643D-04 -0.25633076D-04  0.34286310D-04
  0.25876389D-04 -0.39879246D-04 -0.25077140D-04 -0.39726403D-05 -0.58276147D-03
 -0.36645605D-03 -0.58052795D-04  0.37633887D-04  0.23665198D-04  0.37489650D-05
 -0.24749675D-04 -0.23936808D-04 -0.74600575D-05 -0.48522844D-05  0.64903223D-05
  0.48983431D-05  0.40449838D-04  0.25435944D-04  0.40294808D-05 -0.66844739D-05
 -0.42033766D-05 -0.66588547D-06 -0.52475234D-04 -0.32997835D-04 -0.52274115D-05
  0.26730953D-02  0.25853014D-02  0.80572553D-03  0.11494357D-02 -0.15374631D-02
 -0.11603464D-02  0.42403361D-02  0.26664371D-02  0.42240844D-03 -0.38415607D-02
 -0.24156765D-02 -0.38268374D-03  0.10568315D-02  0.66456399D-03  0.10527810D-03
 -0.61224900D-04 -0.59214058D-04 -0.18454435D-04 -0.14611774D-04  0.19544428D-04
  0.14750471D-04  0.99623931D-04  0.62646201D-04  0.99242108D-05 -0.36728433D-05
 -0.23095825D-05 -0.36587666D-06  0.41802802D-05  0.26286723D-05  0.41642586D-06
  0.26815864D+01  0.25935136D+01  0.80828491D+00 -0.68854444D-02  0.92098381D-02
  0.69508022D-02 -0.41336067D-03 -0.25993228D-03 -0.41177641D-04  0.73829998D-04
  0.46426284D-04  0.73547034D-05 -0.35162648D-03 -0.22111217D-03 -0.35027882D-04
 -0.39426145D-01 -0.38131251D-01 -0.11883845D-01  0.12241456D-02 -0.16373936D-02
 -0.12357654D-02 -0.36862688D-02 -0.23180247D-02 -0.36721406D-03 -0.63677690D-03
 -0.40042240D-03 -0.63433636D-04  0.30234474D-02  0.19012249D-02  0.30118596D-03
  0.37281650D-01  0.36057189D-01  0.11237451D-01  0.10368411D-02 -0.13868588D-02
 -0.10466830D-02  0.17640999D-02  0.11093134D-02  0.17573388D-03  0.44551163D-02
  0.28014967D-02  0.44380414D-03  0.52639093D-03  0.33100874D-03  0.52437346D-04
  0.31064393D-02  0.30044129D-02  0.93634426D-03 -0.26211631D-04  0.35060174D-04
  0.26460437D-04  0.85714820D-04  0.53899779D-04  0.85386306D-05 -0.10058701D-03
 -0.63251813D-04 -0.10020150D-04  0.64098890D-04  0.40307102D-04  0.63853222D-05
 -0.25427145D-02 -0.24592028D-02 -0.76642609D-03  0.56917681D-04  0.55048303D-04
  0.17156152D-04  0.54312525D-04  0.52528710D-04  0.16370904D-04 -0.15727007D-03
 -0.15210476D-03 -0.47404411D-04 -0.13612982D-03 -0.13165883D-03 -0.41032307D-04
  0.16678514D-04  0.16130733D-04  0.50272449D-05  0.24647933D-05  0.23838408D-05
  0.74293906D-06 -0.45631391D-04 -0.44132695D-04 -0.13754233D-04
MO    9     MO 0.0        OCC NO =    2.0000000  ORB. ENERGY =  -10.027803
 -0.56154746D-04 -0.54310426D-04 -0.16926187D-04 -0.17305601D-04  0.23147640D-04
  0.17469869D-04 -0.28837630D-05 -0.18133876D-05 -0.28727106D-06 -0.99314201D-04
 -0.62451435D-04 -0.98933565D-05  0.46768492D-04  0.29409283D-04  0.46589245D-05
 -0.38185457D-04 -0.36931311D-04 -0.11509877D-04 -0.74328963D-05  0.99420993D-05
  0.75034507D-05 -0.77980621D-04 -0.49036307D-04 -0.77681749D-05 -0.33675476D-04
 -0.21176043D-04 -0.33546410D-05  0.45676637D-04  0.28722695D-04  0.45501575D-05
 -0.11541456D-03 -0.11162393D-03 -0.34788304D-04 -0.40603928D-04  0.54311033D-04
  0.40989347D-04  0.52313670D-03  0.32896239D-03  0.52113170D-04 -0.24935761D-03
 -0.15680276D-03 -0.24840191D-04  0.31941247D-03  0.20085513D-03  0.31818828D-04
  0.42841794D-04  0.41434718D-04  0.12913392D-04 -0.36235590D-04  0.48468029D-04
  0.36579544D-04  0.80051161D-06  0.50338319D-06  0.79744354D-07  0.52162480D-04
  0.32801167D-04  0.51962560D-05 -0.12071184D-03 -0.75906846D-04 -0.12024920D-04
  0.17811063D-04  0.17226085D-04  0.53686183D-05 -0.46165636D-04  0.61750267D-04
  0.46603848D-04 -0.14388137D-04 -0.90476467D-05 -0.14332992D-05 -0.47815053D-04
 -0.30067389D-04 -0.47631795D-05  0.83357585D-04  0.52417486D-04  0.83038105D-05
  0.43487873D-01  0.42059577D-01  0.13108133D-01  0.10107231D-02 -0.13519238D-02
 -0.10203171D-02  0.36351229D-02  0.22858628D-02  0.36211907D-03  0.69320066D-03
  0.43590318D-03  0.69054387D-04 -0.30534740D-02 -0.19201064D-02 -0.30417711D-03
  0.26813817D+01  0.25933157D+01  0.80822322D+00 -0.71185791D-02  0.95216746D-02
  0.71861498D-02  0.16667923D-04  0.10481237D-04  0.16604040D-05 -0.41470400D-03
 -0.26077700D-03 -0.41311459D-04  0.48021390D-03  0.30197139D-03  0.47837341D-04
  0.20523165D-02  0.19849112D-02  0.61861013D-03  0.95505022D-05 -0.12774568D-04
 -0.96411572D-05  0.89732509D-04  0.56426209D-04  0.89388596D-05 -0.21130435D-04
 -0.13287384D-04 -0.21049449D-05 -0.33287993D-04 -0.20932384D-04 -0.33160412D-05
  0.24436489D-01  0.23633908D-01  0.73656570D-02  0.10648824D-02 -0.14243663D-02
 -0.10749905D-02 -0.37792627D-02 -0.23765018D-02 -0.37647781D-03  0.28222020D-02
  0.17746764D-02  0.28113855D-03 -0.10380102D-02 -0.65272867D-03 -0.10340319D-03
 -0.11453383D-04 -0.11077213D-04 -0.34522834D-05 -0.25443638D-02 -0.24607979D-02
 -0.76692322D-03 -0.25487008D-02 -0.24649925D-02 -0.76823049D-03  0.56426432D-05
  0.54573189D-05  0.17008079D-05 -0.49914475D-04 -0.48275107D-04 -0.15045242D-04
 -0.37187605D-04 -0.35966232D-04 -0.11209104D-04 -0.33353914D-04 -0.32258453D-04
 -0.10053551D-04  0.14039152D-05  0.13578057D-05  0.42316872D-06
MO   10     MO 0.0        OCC NO =    2.0000000  ORB. ENERGY =   -1.018967
 -0.69290786D+00 -0.67015031D+00 -0.20885658D+00 -0.13787994D+00  0.18442555D+00
  0.13918872D+00  0.18367159D+00  0.11549763D+00  0.18296764D-01 -0.37892478D-02
 -0.23827807D-02 -0.37747250D-03  0.12738397D+00  0.80102459D-01  0.12689575D-01
 -0.55046858D+00 -0.53238924D+00 -0.16592247D+00 -0.10555408D+00  0.14118711D+00
  0.10655602D+00 -0.18759868D+00 -0.11796709D+00 -0.18687969D-01 -0.37601637D-01
 -0.23644919D-01 -0.37457524D-02 -0.12029007D+00 -0.75641625D-01 -0.11982904D-01
 -0.24378202D-01 -0.23577536D-01 -0.73480882D-02 -0.46280918D-02  0.61904466D-02
  0.46720224D-02  0.38760491D-02  0.24373637D-02  0.38611936D-03 -0.70676683D-02
 -0.44443395D-02 -0.70405804D-03 -0.55014953D-02 -0.34594878D-02 -0.54804100D-03
 -0.30683289D-01 -0.29675542D-01 -0.92485702D-02 -0.52447401D-02  0.70152635D-02