 opt aspartic pbe0
GAUSSIAN             52 MOL ORBITALS    156 PRIMITIVES       16 NUCLEI
  O    1    (CENTRE  1)  -0.39665391 -3.06698366 -1.10457687  CHARGE =  8.0
  O    2    (CENTRE  2)   4.09178138 -0.89945353  2.03579313  CHARGE =  8.0
  O    3    (CENTRE  3)  -4.24330383 -2.19593626  0.82323306  CHARGE =  8.0
  O    4    (CENTRE  4)   4.20158246  0.67098811 -2.05131863  CHARGE =  8.0
  N    5    (CENTRE  5)  -3.67661990  3.13884376 -0.02379480  CHARGE =  7.0
  C    6    (CENTRE  6)  -1.55211764  1.38702555 -0.66670869  CHARGE =  6.0
  C    7    (CENTRE  7)   0.81294264  2.09912152  0.91675157  CHARGE =  6.0
  C    8    (CENTRE  8)  -2.27990437 -1.43890356 -0.21116555  CHARGE =  6.0
  C    9    (CENTRE  9)   3.17516658  0.60440877  0.05404204  CHARGE =  6.0
  H   10    (CENTRE 10)  -1.08711889  1.62729683 -2.68324242  CHARGE =  1.0
  H   11    (CENTRE 11)   0.47579094  1.73783480  2.92914754  CHARGE =  1.0
  H   12    (CENTRE 12)   1.16316868  4.12798047  0.66438812  CHARGE =  1.0
  H   13    (CENTRE 13)  -4.34094477  2.49720267  1.73476417  CHARGE =  1.0
  H   14    (CENTRE 14)  -5.15591703  2.61457676 -1.23868427  CHARGE =  1.0
  H   15    (CENTRE 15)  -1.08275697 -4.79576269 -0.65320095  CHARGE =  1.0
  H   16    (CENTRE 16)   5.60034529 -1.75986611  1.23082965  CHARGE =  1.0
CENTRE ASSIGNMENTS    1  1  1  1  1  1  1  1  1  1  1  1  1  1  1  2  2  2  2  2
CENTRE ASSIGNMENTS    2  2  2  2  2  2  2  2  2  2  3  3  3  3  3  3  3  3  3  3
CENTRE ASSIGNMENTS    3  3  3  3  3  4  4  4  4  4  4  4  4  4  4  4  4  4  4  4
CENTRE ASSIGNMENTS    5  5  5  5  5  5  5  5  5  5  5  5  5  5  5  6  6  6  6  6
CENTRE ASSIGNMENTS    6  6  6  6  6  6  6  6  6  6  7  7  7  7  7  7  7  7  7  7
CENTRE ASSIGNMENTS    7  7  7  7  7  8  8  8  8  8  8  8  8  8  8  8  8  8  8  8
CENTRE ASSIGNMENTS    9  9  9  9  9  9  9  9  9  9  9  9  9  9  9 10 10 10 11 11
CENTRE ASSIGNMENTS   11 12 12 12 13 13 13 14 14 14 15 15 15 16 16 16
TYPE ASSIGNMENTS      1  1  1  1  1  1  2  2  2  3  3  3  4  4  4  1  1  1  1  1
TYPE ASSIGNMENTS      1  2  2  2  3  3  3  4  4  4  1  1  1  1  1  1  2  2  2  3
TYPE ASSIGNMENTS      3  3  4  4  4  1  1  1  1  1  1  2  2  2  3  3  3  4  4  4
TYPE ASSIGNMENTS      1  1  1  1  1  1  2  2  2  3  3  3  4  4  4  1  1  1  1  1
TYPE ASSIGNMENTS      1  2  2  2  3  3  3  4  4  4  1  1  1  1  1  1  2  2  2  3
TYPE ASSIGNMENTS      3  3  4  4  4  1  1  1  1  1  1  2  2  2  3  3  3  4  4  4
TYPE ASSIGNMENTS      1  1  1  1  1  1  2  2  2  3  3  3  4  4  4  1  1  1  1  1
TYPE ASSIGNMENTS      1  1  1  1  1  1  1  1  1  1  1  1  1  1  1  1
EXPONENTS  0.1307093D+03 0.2380887D+02 0.6443608D+01 0.5033151D+01 0.1169596D+01
EXPONENTS  0.3803890D+00 0.5033151D+01 0.1169596D+01 0.3803890D+00 0.5033151D+01
EXPONENTS  0.1169596D+01 0.3803890D+00 0.5033151D+01 0.1169596D+01 0.3803890D+00
EXPONENTS  0.1307093D+03 0.2380887D+02 0.6443608D+01 0.5033151D+01 0.1169596D+01
EXPONENTS  0.3803890D+00 0.5033151D+01 0.1169596D+01 0.3803890D+00 0.5033151D+01
EXPONENTS  0.1169596D+01 0.3803890D+00 0.5033151D+01 0.1169596D+01 0.3803890D+00
EXPONENTS  0.1307093D+03 0.2380887D+02 0.6443608D+01 0.5033151D+01 0.1169596D+01
EXPONENTS  0.3803890D+00 0.5033151D+01 0.1169596D+01 0.3803890D+00 0.5033151D+01
EXPONENTS  0.1169596D+01 0.3803890D+00 0.5033151D+01 0.1169596D+01 0.3803890D+00
EXPONENTS  0.1307093D+03 0.2380887D+02 0.6443608D+01 0.5033151D+01 0.1169596D+01
EXPONENTS  0.3803890D+00 0.5033151D+01 0.1169596D+01 0.3803890D+00 0.5033151D+01
EXPONENTS  0.1169596D+01 0.3803890D+00 0.5033151D+01 0.1169596D+01 0.3803890D+00
EXPONENTS  0.9910617D+02 0.1805231D+02 0.4885660D+01 0.3780456D+01 0.8784966D+00
EXPONENTS  0.2857144D+00 0.3780456D+01 0.8784966D+00 0.2857144D+00 0.3780456D+01
EXPONENTS  0.8784966D+00 0.2857144D+00 0.3780456D+01 0.8784966D+00 0.2857144D+00
EXPONENTS  0.7161684D+02 0.1304510D+02 0.3530512D+01 0.2941249D+01 0.6834831D+00
EXPONENTS  0.2222899D+00 0.2941249D+01 0.6834831D+00 0.2222899D+00 0.2941249D+01
EXPONENTS  0.6834831D+00 0.2222899D+00 0.2941249D+01 0.6834831D+00 0.2222899D+00
EXPONENTS  0.7161684D+02 0.1304510D+02 0.3530512D+01 0.2941249D+01 0.6834831D+00
EXPONENTS  0.2222899D+00 0.2941249D+01 0.6834831D+00 0.2222899D+00 0.2941249D+01
EXPONENTS  0.6834831D+00 0.2222899D+00 0.2941249D+01 0.6834831D+00 0.2222899D+00
EXPONENTS  0.7161684D+02 0.1304510D+02 0.3530512D+01 0.2941249D+01 0.6834831D+00
EXPONENTS  0.2222899D+00 0.2941249D+01 0.6834831D+00 0.2222899D+00 0.2941249D+01
EXPONENTS  0.6834831D+00 0.2222899D+00 0.2941249D+01 0.6834831D+00 0.2222899D+00
EXPONENTS  0.7161684D+02 0.1304510D+02 0.3530512D+01 0.2941249D+01 0.6834831D+00
EXPONENTS  0.2222899D+00 0.2941249D+01 0.6834831D+00 0.2222899D+00 0.2941249D+01
EXPONENTS  0.6834831D+00 0.2222899D+00 0.2941249D+01 0.6834831D+00 0.2222899D+00
EXPONENTS  0.3425251D+01 0.6239137D+00 0.1688554D+00 0.3425251D+01 0.6239137D+00
EXPONENTS  0.1688554D+00 0.3425251D+01 0.6239137D+00 0.1688554D+00 0.3425251D+01
EXPONENTS  0.6239137D+00 0.1688554D+00 0.3425251D+01 0.6239137D+00 0.1688554D+00
EXPONENTS  0.3425251D+01 0.6239137D+00 0.1688554D+00 0.3425251D+01 0.6239137D+00
EXPONENTS  0.1688554D+00
MO    1     MO 0.0        OCC NO =    2.0000005  ORB. ENERGY =    0.000000
  0.12867527D+00  0.12444912D+00  0.38785355D-01  0.26887962D-03 -0.35964821D-03
 -0.27143187D-03  0.10585428D-03  0.66564009D-04  0.10544857D-04 -0.11422641D-02
 -0.71828634D-03 -0.11378862D-03  0.18400889D-03  0.11570973D-03  0.18330365D-04
  0.90777757D-02  0.87796294D-02  0.27362270D-02  0.37984228D-06 -0.50806974D-06
 -0.38344781D-06  0.67480308D-04  0.42433428D-04  0.67221680D-05  0.18547390D-03
  0.11663096D-03  0.18476304D-04 -0.96233322D-04 -0.60514096D-04 -0.95864494D-05
  0.22601257D+01  0.21858952D+01  0.68124804D+00  0.13457652D-03 -0.18000697D-03
 -0.13585394D-03  0.10467203D-01  0.65820583D-02  0.10427086D-02  0.42460751D-02
  0.26700460D-02  0.42298014D-03 -0.53231281D-02 -0.33473258D-02 -0.53027264D-03
  0.24179318D-02  0.23385183D-02  0.72881402D-03 -0.89027544D-05  0.11908153D-04
  0.89872609D-05  0.82345222D-04  0.51780885D-04  0.82029622D-05 -0.38714054D-04
 -0.24344436D-04 -0.38565677D-05  0.59697140D-04  0.37539164D-04  0.59468342D-05
  0.26433108D+01  0.25564951D+01  0.79674787D+00 -0.21694366D-02  0.29017967D-02
  0.21900293D-02 -0.51901007D-02 -0.32636746D-02 -0.51702088D-03 -0.18328174D-01
 -0.11525247D-01 -0.18257928D-02  0.86164888D-03  0.54182794D-03  0.85834648D-04
 -0.10339985D-01 -0.10000383D-01 -0.31166827D-02  0.10464903D-02 -0.13997653D-02
 -0.10564237D-02  0.15630295D-02  0.98287491D-03  0.15570390D-03 -0.64119805D-03
 -0.40320254D-03 -0.63874056D-04 -0.71504086D-03 -0.44963688D-03 -0.71230036D-04
  0.43994164D-02  0.42549240D-02  0.13260740D-02 -0.11403821D-03  0.15253532D-03
  0.11512068D-03 -0.32651363D-03 -0.20532053D-03 -0.32526222D-04 -0.20954678D-04
 -0.13176864D-04 -0.20874366D-05 -0.43441696D-03 -0.27317304D-03 -0.43275199D-04
  0.96032669D+00  0.92878616D+00  0.28946208D+00 -0.15736132D-02  0.21048348D-02
  0.15885502D-02  0.56315857D-03  0.35412922D-03  0.56100018D-04 -0.33004764D-03
 -0.20754282D-03 -0.32878269D-04 -0.34054220D-03 -0.21414208D-03 -0.33923703D-04
  0.22999119D-02  0.22243746D-02  0.69324042D-03  0.28724667D-04 -0.38421563D-04
 -0.28997327D-04  0.13485749D-03  0.84802011D-04  0.13434063D-04  0.40694983D-04
  0.25590097D-04  0.40539014D-05 -0.30724899D-04 -0.19320641D-04 -0.30607141D-05
  0.20598885D-03  0.19922345D-03  0.62089248D-04 -0.22470142D-04 -0.21732143D-04
 -0.67729598D-05 -0.17312953D-03 -0.16744335D-03 -0.52184778D-04 -0.13699691D-02
 -0.13249744D-02 -0.41293666D-03 -0.13401595D-02 -0.12961440D-02 -0.40395146D-03
 -0.47001131D-03 -0.45457448D-03 -0.14167101D-03 -0.14627583D-04 -0.14147161D-04
 -0.44090522D-05
MO    2     MO 0.0        OCC NO =    2.0000005  ORB. ENERGY =    0.000000
 -0.75924691D-01 -0.73431055D-01 -0.22885253D-01 -0.32898617D-04  0.44004558D-04
  0.33210896D-04  0.19039590D-03  0.11972605D-03  0.18966618D-04  0.90309993D-04
  0.56789347D-04  0.89963867D-05 -0.15840824D-03 -0.99611351D-04 -0.15780112D-04
  0.11644465D+00  0.11262020D+00  0.35098796D-01  0.25464817D-03 -0.34061250D-03
 -0.25706533D-03  0.15352966D-02  0.96543571D-03  0.15294124D-03 -0.15202521D-02
 -0.95597532D-03 -0.15144255D-03  0.10196628D-02  0.64119131D-03  0.10157548D-03
 -0.15916740D+00 -0.15393978D+00 -0.47976306D-01  0.14106875D-04 -0.18869085D-04
 -0.14240780D-04 -0.71493884D-03 -0.44957273D-03 -0.71219873D-04 -0.32281620D-03
 -0.20299549D-03 -0.32157897D-04  0.41138942D-03  0.25869271D-03  0.40981271D-04
  0.37562026D+01  0.36328356D+01  0.11321962D+01 -0.12837172D-03  0.17170755D-03
  0.12959025D-03 -0.88280677D-02 -0.55513259D-02 -0.87942328D-03 -0.68176390D-03
 -0.42871143D-03 -0.67915094D-04  0.18313813D-01  0.11516217D-01  0.18243623D-02
  0.12134887D+00  0.11736335D+00  0.36577029D-01 -0.70338891D-04  0.94083948D-04
  0.71006559D-04 -0.45338003D-03 -0.28509753D-03 -0.45164239D-04 -0.67828464D-03
 -0.42652358D-03 -0.67568502D-04  0.23652561D-04  0.14873365D-04  0.23561909D-05
  0.76845424D-02  0.74321549D-02  0.23162780D-02 -0.57479738D-04  0.76883793D-04
  0.58025345D-04  0.69989531D-04  0.44011295D-04  0.69721286D-05 -0.22871697D-03
 -0.14382337D-03 -0.22784038D-04 -0.70600947D-05 -0.44395770D-05 -0.70330359D-06
 -0.15820597D-01 -0.15300993D-01 -0.47686511D-02  0.63963327D-03 -0.85556118D-03
 -0.64570478D-03 -0.25522287D-02 -0.16049099D-02 -0.25424469D-03  0.18292168D-02
  0.11502606D-02  0.18222061D-03  0.61748708D-03  0.38829245D-03  0.61512047D-04
 -0.56194119D-01 -0.54348506D-01 -0.16938055D-01  0.83808286D-04 -0.11210035D-03
 -0.84603809D-04 -0.11768659D-03 -0.74004489D-04 -0.11723554D-04 -0.11936554D-04
 -0.75060258D-05 -0.11890806D-05  0.34348519D-04  0.21599271D-04  0.34216873D-05
  0.12448025D+01  0.12039188D+01  0.37520890D+00 -0.19523951D-02  0.26114862D-02
  0.19709276D-02 -0.59302785D-03 -0.37291183D-03 -0.59075499D-04 -0.59841907D-03
 -0.37630197D-03 -0.59612554D-04  0.26031563D-02  0.16369345D-02  0.25931793D-03
 -0.42386941D-04 -0.40994804D-04 -0.12776290D-04  0.13089041D-03  0.12659151D-03
  0.39453044D-04  0.19530368D-05  0.18888922D-05  0.58868520D-06 -0.47071545D-04
 -0.45525549D-04 -0.14188325D-04 -0.21979432D-04 -0.21257550D-04 -0.66250497D-05
  0.32460796D-04  0.31394668D-04  0.97843469D-05 -0.48396028D-03 -0.46806532D-03
 -0.14587551D-03
MO    3     MO 0.0        OCC NO =    2.0000005  ORB. ENERGY =    0.000000
  0.96074736D-01  0.92919302D-01  0.28958888D-01  0.14948122D-03 -0.19994321D-03
 -0.15090012D-03  0.90214489D-03  0.56729292D-03  0.89868729D-04 -0.18922108D-02
 -0.11898730D-02 -0.18849587D-03 -0.53473277D-03 -0.33625431D-03 -0.53268332D-04
  0.12789867D-01  0.12369802D-01  0.38551271D-02  0.11301927D-04 -0.15117240D-04
 -0.11409207D-04  0.17420843D-03  0.10954694D-03  0.17354075D-04 -0.38663820D-04
 -0.24312848D-04 -0.38515635D-05  0.61843564D-04  0.38888893D-04  0.61606540D-05
  0.29874092D+01  0.28892921D+01  0.90046614D+00 -0.27752416D-03  0.37121099D-03
  0.28015847D-03  0.13331499D-01  0.83832046D-02  0.13280405D-02  0.49443767D-02
  0.31091567D-02  0.49254266D-03 -0.70923798D-02 -0.44598787D-02 -0.70651972D-03
  0.22119230D+00  0.21392756D+00  0.66671878D-01 -0.18316566D-04  0.24499887D-04
  0.18490430D-04 -0.51466234D-03 -0.32363349D-03 -0.51268983D-04 -0.36634311D-04
 -0.23036638D-04 -0.36493905D-05  0.10637060D-02  0.66888691D-03  0.10596292D-03
 -0.21862768D+01 -0.21144717D+01 -0.65898847D+00  0.20012256D-02 -0.26768009D-02
 -0.20202216D-02  0.34640235D-02  0.21782710D-02  0.34507472D-03  0.13776494D-01
  0.86630288D-02  0.13723693D-02 -0.36706915D-03 -0.23082293D-03 -0.36566231D-04
  0.30664734D-01  0.29657596D-01  0.92429772D-02 -0.16380620D-03  0.21910403D-03
  0.16536108D-03 -0.72208315D-03 -0.45406526D-03 -0.71931566D-04  0.43513420D-02
  0.27362406D-02  0.43346649D-03  0.74501621D-04  0.46848619D-04  0.74216083D-05
 -0.31766053D-02 -0.30722743D-02 -0.95749372D-03  0.80345136D-04 -0.10746811D-03
 -0.81107786D-04 -0.77089966D-04 -0.48476239D-04 -0.76794507D-05  0.10593439D-04
  0.66614387D-05  0.10552838D-05  0.24200164D-03  0.15217713D-03  0.24107414D-04
  0.84558191D+00  0.81781001D+00  0.25487566D+00 -0.12522719D-02  0.16750148D-02
  0.12641586D-02  0.25035329D-02  0.15742886D-02  0.24939377D-03  0.22232837D-03
  0.13980605D-03  0.22147627D-04 -0.11937523D-02 -0.75066349D-03 -0.11891771D-03
  0.55306873D-01  0.53490400D-01  0.16670621D-01 -0.90971527D-04  0.12168177D-03
  0.91835044D-04 -0.12190804D-03 -0.76659047D-04 -0.12144081D-04  0.17028986D-04
  0.10708283D-04  0.16963720D-05  0.18374363D-03  0.11554292D-03  0.18303940D-04
 -0.44735556D-04 -0.43266282D-04 -0.13484210D-04  0.54943235D-04  0.53138705D-04
  0.16561013D-04 -0.25708599D-04 -0.24864237D-04 -0.77490968D-05  0.10149659D-02
  0.98163083D-03  0.30593145D-03  0.10753189D-02  0.10400017D-02  0.32412309D-03
 -0.26194327D-03 -0.25334012D-03 -0.78955051D-04 -0.11017987D-04 -0.10656117D-04
 -0.33210463D-05
MO    4     MO 0.0        OCC NO =    2.0000003  ORB. ENERGY =    0.000000
  0.12629952D+00  0.12215139D+00  0.38069254D-01 -0.15972400D-04  0.21364376D-04
  0.16124013D-04 -0.58364095D-03 -0.36700909D-03 -0.58140406D-04 -0.14105973D-03
 -0.88702143D-04 -0.14051910D-04  0.31157041D-03  0.19592384D-03  0.31037627D-04
  0.42075080D+01  0.40693185D+01  0.12682288D+01 -0.46531310D-03  0.62239386D-03
  0.46972993D-03  0.74636239D-02  0.46933270D-02  0.74350184D-03  0.24168639D-02
  0.15197889D-02  0.24076009D-03 -0.20637618D-01 -0.12977488D-01 -0.20558521D-02
 -0.23783572D-01 -0.23002435D-01 -0.71688543D-02  0.31828545D-05 -0.42573251D-05
 -0.32130667D-05 -0.11086429D-03 -0.69714443D-04 -0.11043939D-04 -0.25312249D-04
 -0.15917022D-04 -0.25215236D-05  0.64651682D-04  0.40654713D-04  0.64403896D-05
 -0.36661783D+00 -0.35457680D+00 -0.11050610D+00 -0.68351032D-04  0.91425028D-04
  0.68999832D-04  0.92097396D-03  0.57913314D-03  0.91744419D-04  0.98895262D-04
  0.62187995D-04  0.98516232D-05 -0.19543190D-02 -0.12289282D-02 -0.19468287D-03
 -0.69942343D-02 -0.67645189D-02 -0.21082051D-02  0.15063701D-04 -0.20148917D-04
 -0.15206688D-04 -0.28679834D-04 -0.18034649D-04 -0.28569914D-05  0.61779690D-04
  0.38848727D-04  0.61542911D-05 -0.80901442D-05 -0.50872998D-05 -0.80591376D-06
  0.23265742D-02  0.22501613D-02  0.70127698D-03  0.14942321D-04 -0.19986561D-04
 -0.15084156D-04 -0.88984735D-04 -0.55955989D-04 -0.88643688D-05  0.25359525D-04
  0.15946750D-04  0.25262331D-05 -0.32843496D-04 -0.20652871D-04 -0.32717618D-05
  0.77220902D-01  0.74684694D-01  0.23275957D-01 -0.15529476D-03  0.20771928D-03
  0.15676884D-03 -0.37427576D-03 -0.23535464D-03 -0.37284129D-04  0.14021323D-03
  0.88169843D-04  0.13967585D-04  0.46107813D-03  0.28993830D-03  0.45931098D-04
  0.10921786D-01  0.10563076D-01  0.32920493D-02 -0.12207476D-04  0.16328486D-04
  0.12323352D-04 -0.14366135D-03 -0.90338111D-04 -0.14311074D-04  0.98124552D-05
  0.61703351D-05  0.97748475D-06  0.66774873D-04  0.41989832D-04  0.66518949D-05
  0.28749801D+00  0.27805556D+00  0.86657774D-01 -0.15129547D-03  0.20236991D-03
  0.15273159D-03  0.30085371D-03  0.18918489D-03  0.29970065D-04  0.15204687D-02
  0.95611152D-03  0.15146413D-03 -0.43042012D-02 -0.27065972D-02 -0.42877047D-03
 -0.57630045D-05 -0.55737270D-05 -0.17370873D-05 -0.26537160D-03 -0.25665586D-03
 -0.79988420D-04 -0.64193836D-04 -0.62085484D-04 -0.19349333D-04  0.72109796D-05
  0.69741455D-05  0.21735365D-05  0.95883989D-05  0.92734820D-05  0.28901393D-05
 -0.44103531D-04 -0.42655015D-04 -0.13293705D-04 -0.14010061D-02 -0.13549921D-02
 -0.42229186D-03
MO    5     MO 0.0        OCC NO =    2.0000003  ORB. ENERGY =    0.000000
  0.41779792D+01  0.40407596D+01  0.12593283D+01 -0.73098173D-03  0.97774712D-03
  0.73792034D-03 -0.18414694D-01 -0.11579653D-01 -0.18344117D-02 -0.44277736D-02
 -0.27843029D-02 -0.44108035D-03  0.98812666D-02  0.62136056D-02  0.98433952D-03
 -0.10349910D+00 -0.10009983D+00 -0.31196743D-01 -0.40524956D-04  0.54205402D-04
  0.40909625D-04 -0.54717618D-03 -0.34407907D-03 -0.54507905D-04 -0.28147474D-03
 -0.17699887D-03 -0.28039595D-04  0.13090478D-03  0.82316438D-04  0.13040307D-04
 -0.47987225D+00 -0.46411155D+00 -0.14464330D+00 -0.27493334D-04  0.36774555D-04
  0.27754305D-04 -0.22612758D-02 -0.14219509D-02 -0.22526091D-03 -0.85266010D-03
 -0.53617555D-03 -0.84939216D-04  0.11897911D-02  0.74817259D-03  0.11852311D-03
  0.15638444D+00  0.15124823D+00  0.47137466D-01 -0.83124137D-04  0.11118525D-03
  0.83913165D-04 -0.52325148D-03 -0.32903457D-03 -0.52124605D-04 -0.27069629D-03
 -0.17022109D-03 -0.26965881D-04  0.78540747D-03  0.49388529D-03  0.78239728D-04
 -0.76329349D-01 -0.73822423D-01 -0.23007225D-01  0.94113435D-04 -0.12588432D-03
 -0.95006776D-04  0.10511846D-03  0.66101312D-04  0.10471558D-04  0.36786872D-03
  0.23132572D-03  0.36645881D-04 -0.10556414D-05 -0.66381563D-06 -0.10515955D-06
 -0.56662971D-02 -0.54801959D-02 -0.17079377D-02  0.11501984D-03 -0.15384833D-03
 -0.11611163D-03  0.27555313D-03  0.17327520D-03  0.27449703D-04  0.57425807D-03
  0.36110889D-03  0.57205715D-04 -0.26532578D-03 -0.16684397D-03 -0.26430888D-04
  0.24107501D-01  0.23315726D-01  0.72664933D-02 -0.11816630D-03  0.15805697D-03
  0.11928796D-03  0.12851904D-03  0.80816220D-04  0.12802647D-04 -0.12825420D-03
 -0.80649684D-04 -0.12776265D-04 -0.78021658D-04 -0.49062112D-04 -0.77722628D-05
  0.35556037D+00  0.34388251D+00  0.10717316D+00 -0.35482475D-03  0.47460677D-03
  0.35819281D-03 -0.41375397D-02 -0.26017960D-02 -0.41216819D-03  0.63719200D-03
  0.40068343D-03  0.63474987D-04  0.21462621D-02  0.13496272D-02  0.21380363D-03
 -0.85981600D-01 -0.83157660D-01 -0.25916610D-01  0.30752058D-03 -0.41133363D-03
 -0.31043962D-03  0.14846751D-03  0.93360351D-04  0.14789848D-04  0.32959832D-03
  0.20726027D-03  0.32833508D-04  0.46634106D-03  0.29324777D-03  0.46455374D-04
 -0.46448669D-04 -0.44923131D-04 -0.14000578D-04 -0.20923230D-04 -0.20236037D-04
 -0.63066890D-05 -0.47861229D-04 -0.46289297D-04 -0.14426352D-04  0.45705863D-04
  0.44204720D-04  0.13776681D-04  0.34636469D-04  0.33498884D-04  0.10440139D-04
 -0.14153673D-02 -0.13688816D-02 -0.42662061D-03  0.27378022D-04  0.26478831D-04
  0.82522950D-05
MO    6     MO 0.0        OCC NO =    2.0000002  ORB. ENERGY =    0.000000
 -0.46725476D+00 -0.45190846D+00 -0.14084013D+00  0.99915425D-03 -0.13364495D-02
 -0.10086384D-02  0.36092106D-02  0.22695685D-02  0.35953778D-03 -0.19031559D-02
 -0.11967555D-02 -0.18958618D-03 -0.19117970D-02 -0.12021892D-02 -0.19044697D-03
 -0.32433430D+00 -0.31368202D+00 -0.97760983D-01  0.70886101D-03 -0.94815887D-03
 -0.71558964D-03  0.50295170D-03  0.31626952D-03  0.50102406D-04 -0.14281306D-02
 -0.89804682D-03 -0.14226571D-03  0.29736823D-02  0.18699312D-02  0.29622852D-03
 -0.15390876D+01 -0.14885385D+01 -0.46391245D+00  0.61786489D-03 -0.82644421D-03
 -0.62372977D-03 -0.58138595D-02 -0.36559108D-02 -0.57915770D-03 -0.23886767D-02
 -0.15020640D-02 -0.23795218D-03  0.30653279D-02  0.19275604D-02  0.30535796D-03
 -0.11317115D+01 -0.10945420D+01 -0.34112095D+00  0.45911233D-03 -0.61409983D-03
 -0.46347030D-03  0.23102166D-02  0.14527262D-02  0.23013624D-03  0.12937774D-03
  0.81356197D-04  0.12888189D-04 -0.45836075D-02 -0.28822954D-02 -0.45660402D-03
 -0.23566623D+00 -0.22792612D+00 -0.71034616D-01  0.20970534D-03 -0.28049783D-03
 -0.21169590D-03  0.47822360D-03  0.30071983D-03  0.47639074D-04  0.33461504D-03
  0.21041492D-03  0.33333258D-04 -0.94842291D-04 -0.59639377D-04 -0.94478794D-05
 -0.36282878D+00 -0.35091220D+00 -0.10936400D+00  0.15502933D-02 -0.20736426D-02
 -0.15650090D-02  0.13522870D-02  0.85035437D-03  0.13471042D-03  0.37656107D-02
  0.23679171D-02  0.37511785D-03 -0.45566395D-03 -0.28653372D-03 -0.45391755D-04
 -0.31730446D+00 -0.30688306D+00 -0.95642046D-01  0.12992242D-02 -0.17378173D-02
 -0.13115567D-02 -0.26397362D-02 -0.16599369D-02 -0.26296190D-03  0.13110616D-02
  0.82443073D-03  0.13060368D-03  0.78221562D-03  0.49187817D-03  0.77921767D-04
  0.18574558D+01  0.17964504D+01  0.55987511D+00 -0.46086682D-02  0.61644660D-02
  0.46524145D-02 -0.26224162D-02 -0.16490457D-02 -0.26123654D-03 -0.19415525D-02
 -0.12209003D-02 -0.19341112D-03  0.14416515D-02  0.90654914D-03  0.14361261D-03
  0.13776971D+01  0.13324487D+01  0.41526605D+00 -0.34397138D-02  0.46008951D-02
  0.34723642D-02  0.14568886D-02  0.91613063D-03  0.14513048D-03 -0.26792578D-03
 -0.16847892D-03 -0.26689891D-04 -0.20218461D-02 -0.12713911D-02 -0.20140971D-03
  0.29456810D-03  0.28489344D-03  0.88788843D-04  0.25839732D-03  0.24991063D-03
  0.77886229D-04  0.17412652D-03  0.16840759D-03  0.52485289D-04  0.14738370D-03
  0.14254310D-03  0.44424459D-04  0.13353790D-03  0.12915205D-03  0.40251052D-04
 -0.16726813D-03 -0.16177445D-03 -0.50418029D-04 -0.11729474D-03 -0.11344237D-03
 -0.35355032D-04
MO    7     MO 0.0        OCC NO =    2.0000002  ORB. ENERGY =    0.000000
  0.57467788D+00  0.55580343D+00  0.17321965D+00 -0.86894835D-03  0.11622886D-02
  0.87719656D-03 -0.39684087D-02 -0.24954419D-02 -0.39531992D-03  0.76607761D-03
  0.48173016D-03  0.76314151D-04  0.18674653D-02  0.11743123D-02  0.18603079D-03
 -0.43564797D+00 -0.42133975D+00 -0.13131320D+00  0.96363050D-03 -0.12889336D-02
 -0.97277745D-03  0.54797226D-03  0.34457966D-03  0.54587207D-04 -0.21012776D-02
 -0.13213398D-02 -0.20932242D-03  0.39273960D-02  0.24696520D-02  0.39123437D-03
  0.11510396D+01  0.11132354D+01  0.34694686D+00 -0.46131258D-03  0.61704285D-03
  0.46569144D-03  0.42977734D-02  0.27025553D-02  0.42813016D-03  0.15743189D-02
  0.98997398D-03  0.15682851D-03 -0.22531723D-02 -0.14168552D-02 -0.22445367D-03
 -0.15417871D+01 -0.14911493D+01 -0.46472612D+00  0.62005770D-03 -0.82937727D-03
 -0.62594340D-03  0.30510172D-02  0.19185615D-02  0.30393237D-03  0.16533739D-03
  0.10396859D-03  0.16470371D-04 -0.62093325D-02 -0.39045949D-02 -0.61855343D-03
  0.15570292D+00  0.15058908D+00  0.46932040D-01 -0.10142639D-03  0.13566599D-03
  0.10238915D-03 -0.58829929D-03 -0.36993838D-03 -0.58604455D-04 -0.80347599D-04
 -0.50524727D-04 -0.80039655D-05  0.67637320D-04  0.42532162D-04  0.67378090D-05
  0.16458789D+00  0.15918224D+00  0.49610152D-01 -0.11140899D-02  0.14901852D-02
  0.11246650D-02 -0.46749884D-03 -0.29397581D-03 -0.46570708D-04 -0.23146232D-02
 -0.14554972D-02 -0.23057521D-03  0.77616435D-03  0.48807297D-03  0.77318959D-04
 -0.35880208D+00 -0.34701775D+00 -0.10815027D+00  0.18264053D-02 -0.24429647D-02
 -0.18437419D-02 -0.27469548D-02 -0.17273589D-02 -0.27364267D-03  0.18409826D-02
  0.11576593D-02  0.18339268D-03  0.14041099D-02  0.88294199D-03  0.13987285D-03
 -0.13669526D+01 -0.13220570D+01 -0.41202743D+00  0.33906902D-02 -0.45353220D-02
 -0.34228752D-02  0.16723304D-02  0.10516062D-02  0.16659209D-03  0.16682368D-02
  0.10490320D-02  0.16618430D-03 -0.97266219D-03 -0.61163608D-03 -0.96893432D-04
  0.18644496D+01  0.18032144D+01  0.56198318D+00 -0.46198428D-02  0.61794129D-02
  0.46636951D-02  0.20669603D-02  0.12997601D-02  0.20590384D-03 -0.43932068D-03
 -0.27625664D-03 -0.43763692D-04 -0.27068276D-02 -0.17021258D-02 -0.26964533D-03
 -0.15095199D-03 -0.14599419D-03 -0.45500012D-04  0.32618294D-03  0.31546994D-03
  0.98318201D-04  0.37021834D-03  0.35805906D-03  0.11159137D-03 -0.84215400D-04
 -0.81449468D-04 -0.25384242D-04 -0.39319261D-04 -0.38027878D-04 -0.11851629D-04
  0.20436936D-05  0.19765715D-05  0.61601100D-06 -0.17024393D-03 -0.16465252D-03
 -0.51314998D-04
MO    8     MO 0.0        OCC NO =    2.0000001  ORB. ENERGY =    0.000000
 -0.76862661D-01 -0.74338219D-01 -0.23167976D-01  0.13147524D-03 -0.17585875D-03
 -0.13272322D-03  0.88543089D-04  0.55678271D-04  0.88203735D-05 -0.21085465D-04
 -0.13259106D-04 -0.21004652D-05 -0.39022145D-03 -0.24538172D-03 -0.38872587D-04
 -0.17656949D+00 -0.17077033D+00 -0.53221651D-01  0.28108060D-03 -0.37596800D-03
 -0.28374866D-03 -0.41214763D-04 -0.25916949D-04 -0.41056801D-05 -0.55503566D-04
 -0.34902132D-04 -0.55290840D-05  0.73158970D-03  0.46004324D-03  0.72878578D-04
 -0.22734076D+00 -0.21987408D+00 -0.68525148D-01  0.15937071D-03 -0.21317120D-03
 -0.16088348D-03 -0.78355948D-03 -0.49272323D-03 -0.78055638D-04  0.80642617D-03
  0.50710242D-03  0.80333543D-04  0.34498616D-03  0.21693655D-03  0.34366395D-04
 -0.28035768D+00 -0.27114975D+00 -0.84505533D-01  0.16830366D-03 -0.22511974D-03
 -0.16990123D-03 -0.35063253D-03 -0.22048714D-03 -0.34928868D-04  0.71168522D-03
  0.44752676D-03  0.70895758D-04 -0.96856272D-03 -0.60905823D-03 -0.96485056D-04
 -0.11928020D-01 -0.11536261D-01 -0.35953488D-02  0.57170021D-03 -0.76469522D-03
 -0.57712689D-03 -0.19066354D-02 -0.11989435D-02 -0.18993280D-03  0.17224217D-02
  0.10831050D-02  0.17158202D-03  0.43574883D-03  0.27401056D-03  0.43407876D-04
  0.17876418D+01  0.17289294D+01  0.53883177D+00 -0.38909874D-02  0.52045099D-02
  0.39279213D-02 -0.17599316D-02 -0.11066922D-02 -0.17531864D-03 -0.22004081D-03
 -0.13836757D-03 -0.21919748D-04 -0.12334388D-02 -0.77561943D-03 -0.12287115D-03
  0.19334543D+01  0.18699529D+01  0.58278263D+00 -0.44214538D-02  0.59140516D-02
  0.44634230D-02  0.15330645D-02  0.96403210D-03  0.15271888D-03  0.81771317D-03
  0.51419999D-03  0.81457917D-04  0.12025650D-02  0.75620516D-03  0.11979560D-03
  0.25398849D+00  0.24564661D+00  0.76557319D-01 -0.49158066D-04  0.65752884D-04
  0.49624683D-04 -0.10532094D-02 -0.66228636D-03 -0.10491729D-03 -0.25616553D-02
 -0.16108376D-02 -0.25518374D-03  0.62176471D-03  0.39098233D-03  0.61938171D-04
  0.35852753D+00  0.34675222D+00  0.10806752D+00 -0.29059755D-03  0.38869769D-03
  0.29335595D-03  0.24670768D-02  0.15513641D-02  0.24576213D-03 -0.13885061D-02
 -0.87312990D-03 -0.13831845D-03 -0.12721575D-02 -0.79996675D-03 -0.12672817D-03
 -0.15245162D-02 -0.14744457D-02 -0.45952032D-03 -0.16280757D-02 -0.15746039D-02
 -0.49073527D-03 -0.15597779D-02 -0.15085492D-02 -0.47014890D-03 -0.17969920D-03
 -0.17379724D-03 -0.54165010D-04 -0.14343519D-03 -0.13872427D-03 -0.43234295D-04
 -0.51460488D-04 -0.49770344D-04 -0.15511242D-04 -0.27291431D-04 -0.26395084D-04
 -0.82261949D-05
MO    9     MO 0.0        OCC NO =    2.0000000  ORB. ENERGY =    0.000000
  0.52939834D-01  0.51201103D-01  0.15957147D-01 -0.10114339D-03  0.13528746D-03
  0.10210346D-03 -0.29113255D-03 -0.18307196D-03 -0.29001674D-04 -0.51483680D-05
 -0.32374320D-05 -0.51286361D-06  0.10225515D-03  0.64300782D-04  0.10186324D-04
 -0.13185361D+00 -0.12752307D+00 -0.39743372D-01  0.19890304D-03 -0.26604889D-03
 -0.20079106D-03 -0.48642509D-04 -0.30587715D-04 -0.48456079D-05  0.44335343D-04
  0.27879253D-04  0.44165421D-05  0.46615339D-03  0.29312976D-03  0.46436679D-04
  0.20905759D+00  0.20219140D+00  0.63014228D-01 -0.13067021D-03  0.17478197D-03
  0.13191056D-03  0.76096725D-03  0.47851662D-03  0.75805073D-04 -0.95284489D-03
 -0.59917444D-03 -0.94919297D-04 -0.24097126D-03 -0.15152920D-03 -0.24004771D-04
 -0.15858302D+00 -0.15337459D+00 -0.47800161D-01  0.91484600D-04 -0.12236804D-03
 -0.92352987D-04 -0.51856256D-03 -0.32608605D-03 -0.51657509D-04  0.79272096D-03
  0.49848421D-03  0.78968274D-04 -0.66606852D-03 -0.41884176D-03 -0.66351572D-04
 -0.54659835D-02 -0.52864613D-02 -0.16475591D-02 -0.64354762D-03  0.86079693D-03
  0.64965629D-03  0.22353709D-02  0.14056612D-02  0.22268035D-03 -0.20992579D-02
 -0.13200697D-02 -0.20912122D-03 -0.66817118D-03 -0.42016397D-03 -0.66561032D-04
 -0.19576293D+01 -0.18933338D+01 -0.59006944D+00  0.55629288D-02 -0.74408667D-02
 -0.56157331D-02 -0.21216644D-02 -0.13341595D-02 -0.21135328D-03 -0.86160977D-03
 -0.54180334D-03 -0.85830752D-04 -0.12660961D-02 -0.79615523D-03 -0.12612436D-03
  0.17918097D+01  0.17329603D+01  0.54008803D+00 -0.53881752D-02  0.72071196D-02
  0.54393207D-02 -0.24523012D-02 -0.15420728D-02 -0.24429024D-03 -0.53939093D-03
 -0.33918349D-03 -0.53732363D-04 -0.14940518D-02 -0.93949990D-03 -0.14883257D-03
 -0.22508722D+00 -0.21769456D+00 -0.67845885D-01 -0.59469563D-04  0.79545344D-04
  0.60034058D-04  0.96899120D-03  0.60932767D-03  0.96527740D-04  0.27882856D-02
  0.17533488D-02  0.27775991D-03 -0.61645300D-03 -0.38764219D-03 -0.61409036D-04
  0.23493678D+00  0.22722062D+00  0.70814743D-01 -0.25417480D-04  0.33997932D-04
  0.25658747D-04  0.21834080D-02  0.13729856D-02  0.21750398D-03 -0.12743982D-02
 -0.80137581D-03 -0.12695139D-03 -0.11036228D-02 -0.69398763D-03 -0.10993930D-03
  0.16420337D-02  0.15881035D-02  0.49494250D-03 -0.14483468D-02 -0.14007780D-02
 -0.43656132D-03 -0.14581334D-02 -0.14102431D-02 -0.43951119D-03  0.18365270D-03
  0.17762089D-03  0.55356674D-04  0.10889831D-03  0.10532170D-03  0.32824173D-04
  0.51810850D-04  0.50109199D-04  0.15616849D-04 -0.19543840D-04 -0.18901951D-04
 -0.58909126D-05
MO   10     MO 0.0        OCC NO =    1.9995882  ORB. ENERGY =    0.000000
 -0.10163399D+00 -0.98295972D-01 -0.30634561D-01 -0.24582050D-01  0.32880477D-01
  0.24815387D-01  0.38061370D-01  0.23934011D-01  0.37915494D-02  0.94292643D-02
  0.59293744D-02  0.93931253D-03 -0.18091939D-01 -0.11376697D-01 -0.18022599D-02
 -0.83325424D+00 -0.80588722D+00 -0.25115985D+00 -0.20206613D+00  0.27027977D+00
  0.20398417D+00 -0.12179893D+00 -0.76590433D-01 -0.12133211D-01 -0.34801761D-01
 -0.21884281D-01 -0.34668378D-02  0.33017947D+00  0.20762571D+00  0.32891401D-01
  0.51293724D-01  0.49609057D-01  0.15460976D-01  0.12063745D-01 -0.16136234D-01
 -0.12178256D-01  0.14768772D-01  0.92869999D-02  0.14712168D-02 -0.32383577D-02
 -0.20363662D-02 -0.32259462D-03 -0.72525782D-02 -0.45606158D-02 -0.72247816D-03
  0.49191656D+00  0.47576028D+00  0.14827370D+00  0.11636433D+00 -0.15564670D+00
 -0.11746888D+00 -0.19066019D-01 -0.11989224D-01 -0.18992945D-02 -0.43871341D-01
 -0.27587476D-01 -0.43703198D-02  0.14288184D+00  0.89847935D-01  0.14233422D-01
 -0.20283403D-02 -0.19617225D-02 -0.61138320D-03 -0.62135125D-03  0.83110749D-03
  0.62724922D-03  0.58175525D-03  0.36582332D-03  0.57952559D-04  0.29172581D-02
  0.18344501D-02  0.29060772D-03 -0.21909388D-04 -0.13777211D-04 -0.21825417D-05
 -0.13722993D-02 -0.13272281D-02 -0.41363904D-03 -0.55013676D-04  0.73585236D-04
  0.55535875D-04  0.14729782D-03  0.92624825D-04  0.14673328D-04  0.93308922D-05