 opt aspargine m062x
GAUSSIAN             35 MOL ORBITALS    159 PRIMITIVES       17 NUCLEI
  O    1    (CENTRE  1)   0.62752998  3.09312318 -1.26723200  CHARGE =  8.0
  O    2    (CENTRE  2)   4.40202903  1.95915669  0.68042251  CHARGE =  8.0
  O    3    (CENTRE  3)  -3.99836167  1.57166800  1.88441524  CHARGE =  8.0
  N    4    (CENTRE  4)   3.42540091 -3.31641426 -0.04890000  CHARGE =  7.0
  N    5    (CENTRE  5)  -4.23660029 -0.86213484 -1.83866598  CHARGE =  7.0
  C    6    (CENTRE  6)   1.37260159 -1.42820520 -0.57674573  CHARGE =  6.0
  C    7    (CENTRE  7)  -0.86576511 -1.87764375  1.27912986  CHARGE =  6.0
  C    8    (CENTRE  8)   2.36386967  1.34833422 -0.29512575  CHARGE =  6.0
  C    9    (CENTRE  9)  -3.19374742 -0.20668283  0.59297506  CHARGE =  6.0
  H   10    (CENTRE 10)   0.68863371 -1.69170221 -2.52772781  CHARGE =  1.0
  H   11    (CENTRE 11)  -1.38274296 -3.88677518  1.19141012  CHARGE =  1.0
  H   12    (CENTRE 12)  -0.27771853 -1.43790525  3.21949834  CHARGE =  1.0
  H   13    (CENTRE 13)   4.31887097 -2.61478622  1.59162792  CHARGE =  1.0
  H   14    (CENTRE 14)   4.80445416 -2.97279672 -1.44658037  CHARGE =  1.0
  H   15    (CENTRE 15)  -4.19485745 -2.79372682 -2.21371399  CHARGE =  1.0
  H   16    (CENTRE 16)  -6.05271740 -0.14426646 -2.08917826  CHARGE =  1.0
  H   17    (CENTRE 17)   1.46314209  4.78540503 -0.89462074  CHARGE =  1.0
CENTRE ASSIGNMENTS    1  1  1  1  1  1  1  1  1  1  1  1  1  1  1  2  2  2  2  2
CENTRE ASSIGNMENTS    2  2  2  2  2  2  2  2  2  2  3  3  3  3  3  3  3  3  3  3
CENTRE ASSIGNMENTS    3  3  3  3  3  4  4  4  4  4  4  4  4  4  4  4  4  4  4  4
CENTRE ASSIGNMENTS    5  5  5  5  5  5  5  5  5  5  5  5  5  5  5  6  6  6  6  6
CENTRE ASSIGNMENTS    6  6  6  6  6  6  6  6  6  6  7  7  7  7  7  7  7  7  7  7
CENTRE ASSIGNMENTS    7  7  7  7  7  8  8  8  8  8  8  8  8  8  8  8  8  8  8  8
CENTRE ASSIGNMENTS    9  9  9  9  9  9  9  9  9  9  9  9  9  9  9 10 10 10 11 11
CENTRE ASSIGNMENTS   11 12 12 12 13 13 13 14 14 14 15 15 15 16 16 16 17 17 17
TYPE ASSIGNMENTS      1  1  1  1  1  1  2  2  2  3  3  3  4  4  4  1  1  1  1  1
TYPE ASSIGNMENTS      1  2  2  2  3  3  3  4  4  4  1  1  1  1  1  1  2  2  2  3
TYPE ASSIGNMENTS      3  3  4  4  4  1  1  1  1  1  1  2  2  2  3  3  3  4  4  4
TYPE ASSIGNMENTS      1  1  1  1  1  1  2  2  2  3  3  3  4  4  4  1  1  1  1  1
TYPE ASSIGNMENTS      1  2  2  2  3  3  3  4  4  4  1  1  1  1  1  1  2  2  2  3
TYPE ASSIGNMENTS      3  3  4  4  4  1  1  1  1  1  1  2  2  2  3  3  3  4  4  4
TYPE ASSIGNMENTS      1  1  1  1  1  1  2  2  2  3  3  3  4  4  4  1  1  1  1  1
TYPE ASSIGNMENTS      1  1  1  1  1  1  1  1  1  1  1  1  1  1  1  1  1  1  1
EXPONENTS  0.1307093D+03 0.2380887D+02 0.6443608D+01 0.5033151D+01 0.1169596D+01
EXPONENTS  0.3803890D+00 0.5033151D+01 0.1169596D+01 0.3803890D+00 0.5033151D+01
EXPONENTS  0.1169596D+01 0.3803890D+00 0.5033151D+01 0.1169596D+01 0.3803890D+00
EXPONENTS  0.1307093D+03 0.2380887D+02 0.6443608D+01 0.5033151D+01 0.1169596D+01
EXPONENTS  0.3803890D+00 0.5033151D+01 0.1169596D+01 0.3803890D+00 0.5033151D+01
EXPONENTS  0.1169596D+01 0.3803890D+00 0.5033151D+01 0.1169596D+01 0.3803890D+00
EXPONENTS  0.1307093D+03 0.2380887D+02 0.6443608D+01 0.5033151D+01 0.1169596D+01
EXPONENTS  0.3803890D+00 0.5033151D+01 0.1169596D+01 0.3803890D+00 0.5033151D+01
EXPONENTS  0.1169596D+01 0.3803890D+00 0.5033151D+01 0.1169596D+01 0.3803890D+00
EXPONENTS  0.9910617D+02 0.1805231D+02 0.4885660D+01 0.3780456D+01 0.8784966D+00
EXPONENTS  0.2857144D+00 0.3780456D+01 0.8784966D+00 0.2857144D+00 0.3780456D+01
EXPONENTS  0.8784966D+00 0.2857144D+00 0.3780456D+01 0.8784966D+00 0.2857144D+00
EXPONENTS  0.9910617D+02 0.1805231D+02 0.4885660D+01 0.3780456D+01 0.8784966D+00
EXPONENTS  0.2857144D+00 0.3780456D+01 0.8784966D+00 0.2857144D+00 0.3780456D+01
EXPONENTS  0.8784966D+00 0.2857144D+00 0.3780456D+01 0.8784966D+00 0.2857144D+00
EXPONENTS  0.7161684D+02 0.1304510D+02 0.3530512D+01 0.2941249D+01 0.6834831D+00
EXPONENTS  0.2222899D+00 0.2941249D+01 0.6834831D+00 0.2222899D+00 0.2941249D+01
EXPONENTS  0.6834831D+00 0.2222899D+00 0.2941249D+01 0.6834831D+00 0.2222899D+00
EXPONENTS  0.7161684D+02 0.1304510D+02 0.3530512D+01 0.2941249D+01 0.6834831D+00
EXPONENTS  0.2222899D+00 0.2941249D+01 0.6834831D+00 0.2222899D+00 0.2941249D+01
EXPONENTS  0.6834831D+00 0.2222899D+00 0.2941249D+01 0.6834831D+00 0.2222899D+00
EXPONENTS  0.7161684D+02 0.1304510D+02 0.3530512D+01 0.2941249D+01 0.6834831D+00
EXPONENTS  0.2222899D+00 0.2941249D+01 0.6834831D+00 0.2222899D+00 0.2941249D+01
EXPONENTS  0.6834831D+00 0.2222899D+00 0.2941249D+01 0.6834831D+00 0.2222899D+00
EXPONENTS  0.7161684D+02 0.1304510D+02 0.3530512D+01 0.2941249D+01 0.6834831D+00
EXPONENTS  0.2222899D+00 0.2941249D+01 0.6834831D+00 0.2222899D+00 0.2941249D+01
EXPONENTS  0.6834831D+00 0.2222899D+00 0.2941249D+01 0.6834831D+00 0.2222899D+00
EXPONENTS  0.3425251D+01 0.6239137D+00 0.1688554D+00 0.3425251D+01 0.6239137D+00
EXPONENTS  0.1688554D+00 0.3425251D+01 0.6239137D+00 0.1688554D+00 0.3425251D+01
EXPONENTS  0.6239137D+00 0.1688554D+00 0.3425251D+01 0.6239137D+00 0.1688554D+00
EXPONENTS  0.3425251D+01 0.6239137D+00 0.1688554D+00 0.3425251D+01 0.6239137D+00
EXPONENTS  0.1688554D+00 0.3425251D+01 0.6239137D+00 0.1688554D+00
MO    1     MO 0.0        OCC NO =    2.0000000  ORB. ENERGY =  -19.431180
  0.42264859D+01  0.40876732D+01  0.12739492D+01 -0.63897629D-02  0.85468241D-02
  0.64504157D-02  0.62186645D-02  0.39104631D-02  0.61948306D-03  0.79741896D-03
  0.50143844D-03  0.79436274D-04  0.32175334D-02  0.20232714D-02  0.32052018D-03
  0.35303654D-02  0.34144157D-02  0.10641243D-02 -0.48053997D-04  0.64276103D-04
  0.48510134D-04 -0.32808967D-03 -0.20631159D-03 -0.32683222D-04  0.96944564D-03
  0.60961343D-03  0.96573010D-04 -0.21896817D-03 -0.13769306D-03 -0.21812894D-04
  0.57690232D-03  0.55795481D-03  0.17389014D-03 -0.15617461D-04  0.20889615D-04
  0.15765704D-04  0.46980344D-04  0.29542501D-04  0.46800285D-05 -0.40095054D-04
 -0.25212846D-04 -0.39941384D-05 -0.56444095D-04 -0.35493561D-04 -0.56227764D-05
  0.70212661D-05  0.67906629D-05  0.21163530D-05 -0.16481908D-05  0.22045883D-05
  0.16638357D-05 -0.20928786D-04 -0.13160582D-04 -0.20848574D-05 -0.65722094D-04
 -0.41327816D-04 -0.65470205D-05  0.10143559D-04  0.63785422D-05  0.10104683D-05
 -0.10627186D-04 -0.10278152D-04 -0.32032510D-05 -0.63090315D-05  0.84388393D-05
  0.63689179D-05  0.15222061D-04  0.95720403D-05  0.15163720D-05  0.18580649D-04
  0.11684011D-04  0.18509436D-05  0.20942820D-04  0.13169407D-04  0.20862553D-05
 -0.56347911D-04 -0.54497247D-04 -0.16984411D-04 -0.47043352D-04  0.62924284D-04
  0.47489896D-04 -0.11304905D-03 -0.71088274D-04 -0.11261577D-04  0.22149836D-03
  0.13928411D-03  0.22064943D-04 -0.12274419D-03 -0.77184838D-04 -0.12227375D-04
 -0.27067864D-04 -0.26178859D-04 -0.81588070D-05 -0.76642158D-05  0.10251508D-04
  0.77369658D-05  0.13316040D-04  0.83734833D-05  0.13265004D-05  0.52175303D-04
  0.32809230D-04  0.51975333D-05  0.93881138D-05  0.59034979D-05  0.93521325D-06
  0.14608256D-02  0.14128469D-02  0.44032268D-03  0.73472903D-03 -0.98275943D-03
 -0.74170320D-03  0.27726887D-02  0.17435411D-02  0.27620620D-03 -0.26229115D-02
 -0.16493571D-02 -0.26128588D-03  0.15461289D-02  0.97224732D-03  0.15402031D-03
  0.74358811D-04  0.71916605D-04  0.22413265D-04  0.24869864D-04 -0.33265452D-04
 -0.25105933D-04 -0.77578894D-04 -0.48783690D-04 -0.77281562D-05 -0.11061282D-03
 -0.69556309D-04 -0.11018888D-04  0.48172659D-04  0.30292261D-04  0.47988031D-05
 -0.33183266D-04 -0.32093410D-04 -0.10002114D-04  0.34336716D-05  0.33208977D-05
  0.10349787D-05 -0.94696706D-06 -0.91586531D-06 -0.28543521D-06 -0.18731348D-04
 -0.18116145D-04 -0.56460110D-05 -0.34091723D-05 -0.32972030D-05 -0.10275942D-05
 -0.42693546D-06 -0.41291339D-06 -0.12868707D-06 -0.12995266D-05 -0.12568456D-05
 -0.39170386D-06 -0.16134944D-02 -0.15605015D-02 -0.48634017D-03
MO    2     MO 0.0        OCC NO =    2.0000000  ORB. ENERGY =  -19.377472
 -0.38365661D-02 -0.37105597D-02 -0.11564194D-02 -0.56218125D-04  0.75196284D-04
  0.56751757D-04  0.65496368D-03  0.41185874D-03  0.65245344D-04  0.50567237D-03
  0.31798035D-03  0.50373431D-04  0.29778645D-03  0.18725611D-03  0.29664514D-04
  0.42267531D+01  0.40879316D+01  0.12740297D+01 -0.64164763D-02  0.85825554D-02
  0.64773826D-02 -0.83945109D-02 -0.52786937D-02 -0.83623377D-03 -0.24924855D-02
 -0.15673418D-02 -0.24829327D-03 -0.40163720D-02 -0.25256025D-02 -0.40009786D-03
  0.17583764D-03  0.17006251D-03  0.53001058D-04 -0.12846029D-05  0.17182602D-05
  0.12967966D-05  0.60679095D-05  0.38156643D-05  0.60446534D-06 -0.12318878D-05
 -0.77464410D-06 -0.12271664D-06 -0.56744438D-05 -0.35682425D-05 -0.56526957D-06
 -0.36005876D-04 -0.34823315D-04 -0.10852906D-04 -0.14326009D-04  0.19162194D-04
  0.14461994D-04  0.15003551D-03  0.94346355D-04  0.14946048D-04  0.22877979D-04
  0.14386287D-04  0.22790296D-05  0.97849443D-04  0.61530355D-04  0.97474421D-05
 -0.13371190D-05 -0.12932033D-05 -0.40303497D-06 -0.79752319D-06  0.10667517D-05
  0.80509341D-06  0.46373271D-05  0.29160758D-05  0.46195539D-06  0.11636341D-05
  0.73172434D-06  0.11591743D-06  0.35749298D-05  0.22480118D-05  0.35612283D-06
 -0.54897107D-04 -0.53094092D-04 -0.16547109D-04 -0.24199621D-04  0.32368948D-04
  0.24429328D-04  0.37758722D-03  0.23743697D-03  0.37614006D-04 -0.49569792D-04
 -0.31170815D-04 -0.49379808D-05  0.18240692D-03  0.11470237D-03  0.18170782D-04
 -0.12120255D-04 -0.11722183D-04 -0.36532923D-05 -0.28401101D-05  0.37988766D-05
  0.28670689D-05  0.13345984D-04  0.83923129D-05  0.13294834D-05  0.14828772D-04
  0.93247295D-05  0.14771938D-05 -0.24960271D-04 -0.15695688D-04 -0.24864608D-05
  0.16437908D-02  0.15898029D-02  0.49547211D-03  0.11895614D-02 -0.15911345D-02
 -0.12008529D-02 -0.51075115D-02 -0.32117403D-02 -0.50879362D-03 -0.15482568D-02
 -0.97358545D-03 -0.15423229D-03 -0.24438436D-02 -0.15367544D-02 -0.24344772D-03
  0.13104889D-04  0.12674478D-04  0.39500813D-05  0.46305623D-05 -0.61937511D-05
 -0.46745164D-05 -0.22039762D-04 -0.13859194D-04 -0.21955291D-05 -0.10012833D-04
 -0.62963384D-05 -0.99744578D-06  0.81332340D-05  0.51143958D-05  0.81020622D-06
  0.84004238D-05  0.81245242D-05  0.25320593D-05  0.14324172D-05  0.13853716D-05
  0.43175980D-06  0.12739172D-04  0.12320773D-04  0.38398467D-05 -0.77005027D-04
 -0.74475909D-04 -0.23210888D-04 -0.10975029D-04 -0.10614570D-04 -0.33080979D-05
  0.44980357D-06  0.43503043D-06  0.13557998D-06  0.31738456D-07  0.30696053D-07
  0.95666191D-08 -0.32016199D-04 -0.30964674D-04 -0.96503362D-05
MO    3     MO 0.0        OCC NO =    2.0000000  ORB. ENERGY =  -19.362679
 -0.64090840D-03 -0.61985870D-03 -0.19318288D-03 -0.69814104D-05  0.93382004D-05
  0.70476791D-05 -0.76459835D-04 -0.48079996D-04 -0.76166792D-05 -0.38911935D-04
 -0.24468869D-04 -0.38762799D-05  0.23531334D-04  0.14797135D-04  0.23441147D-05
 -0.18039367D-03 -0.17446890D-03 -0.54374337D-04 -0.12550588D-05  0.16787426D-05
  0.12669721D-05 -0.23776028D-05 -0.14951004D-05 -0.23684903D-06 -0.29215295D-05
 -0.18371361D-05 -0.29103323D-06 -0.68769310D-05 -0.43243988D-05 -0.68505742D-06
  0.42267717D+01  0.40879496D+01  0.12740353D+01 -0.64142076D-02  0.85795209D-02
  0.64750924D-02  0.32918770D-02  0.20700206D-02  0.32792604D-03 -0.73164022D-02
 -0.46007500D-02 -0.72883610D-03 -0.53439785D-02 -0.33604371D-02 -0.53234970D-03
 -0.15824787D-05 -0.15305045D-05 -0.47699140D-06 -0.51416726D-06  0.68774024D-06
  0.51904782D-06 -0.56846161D-05 -0.35746392D-05 -0.56628290D-06 -0.11404495D-05
 -0.71714523D-06 -0.11360785D-06 -0.14581050D-06 -0.91689556D-07 -0.14525166D-07
 -0.93157921D-04 -0.90098286D-04 -0.28079700D-04 -0.59749904D-04  0.79920324D-04
  0.60317061D-04 -0.36216609D-03 -0.22773976D-03 -0.36077804D-04  0.50920037D-03
  0.32019886D-03  0.50724879D-04  0.21957548D-03  0.13807495D-03  0.21873393D-04
 -0.10724502D-04 -0.10372272D-04 -0.32325841D-05 -0.43606470D-05  0.58327177D-05
  0.44020391D-05 -0.18859662D-04 -0.11859462D-04 -0.18787380D-05 -0.11601395D-04
 -0.72952686D-05 -0.11556931D-05  0.17539394D-05  0.11029242D-05  0.17472172D-06
 -0.66337359D-04 -0.64158606D-04 -0.19995435D-04 -0.32747471D-04  0.43802388D-04
  0.33058315D-04 -0.22022801D-04 -0.13848528D-04 -0.21938395D-05  0.28142636D-03
  0.17696845D-03  0.28034775D-04  0.35618556D-03  0.22397904D-03  0.35482043D-04
 -0.13993859D-04 -0.13534251D-04 -0.42180350D-05 -0.35889476D-05  0.48005074D-05
  0.36230146D-05 -0.29707778D-04 -0.18681048D-04 -0.29593919D-05 -0.19782259D-05
 -0.12439615D-05 -0.19706441D-06  0.22783804D-05  0.14327067D-05  0.22696482D-06
  0.16619495D-02  0.16073652D-02  0.50094552D-03  0.11987816D-02 -0.16034672D-02
 -0.12101606D-02  0.20423622D-02  0.12842922D-02  0.20345346D-03 -0.44759664D-02
 -0.28146078D-02 -0.44588116D-03 -0.32052226D-02 -0.20155300D-02 -0.31929381D-03
 -0.76217716D-05 -0.73714457D-05 -0.22973576D-05  0.95099707D-05  0.91976297D-05
  0.28664994D-05 -0.51415499D-04 -0.49726832D-04 -0.15497682D-04  0.28173237D-06
  0.27247928D-06  0.84919890D-07  0.61196622D-06  0.59186709D-06  0.18445912D-06
  0.34816559D-05  0.33673060D-05  0.10494422D-05 -0.44815904D-04 -0.43343991D-04
 -0.13508429D-04 -0.19543982D-06 -0.18902089D-06 -0.58909554D-07
MO    4     MO 0.0        OCC NO =    2.0000000  ORB. ENERGY =  -14.569722
 -0.21772373D-04 -0.21057291D-04 -0.65626380D-05 -0.41574779D-05  0.55609626D-05
  0.41969414D-05 -0.42078480D-04 -0.26460077D-04 -0.41917208D-05 -0.27860981D-04
 -0.17519733D-04 -0.27754200D-05  0.76374199D-05  0.48026146D-05  0.76081484D-06
 -0.26005117D-05 -0.25151017D-05 -0.78384734D-06 -0.12796498D-05  0.17116349D-05
  0.12917964D-05 -0.45575242D-05 -0.28658935D-05 -0.45400569D-06 -0.24688509D-05
 -0.15524797D-05 -0.24593887D-06 -0.27161865D-05 -0.17080109D-05 -0.27057763D-06
 -0.19097297D-03 -0.18470075D-03 -0.57563155D-04 -0.68997196D-04  0.92289323D-04
  0.69652129D-04 -0.47836774D-03 -0.30081047D-03 -0.47653432D-04 -0.50446517D-04
 -0.31722123D-04 -0.50253173D-05 -0.67537355D-03 -0.42469301D-03 -0.67278508D-04
 -0.31944108D-03 -0.30894951D-03 -0.96286067D-04  0.34263630D-05 -0.45830373D-05
 -0.34588866D-05  0.57865812D-05  0.36387576D-05  0.57644033D-06 -0.92917098D-05
 -0.58428765D-05 -0.92560980D-06  0.17266225D-05  0.10857465D-05  0.17200049D-06
  0.34307726D+01  0.33180939D+01  0.10341049D+01 -0.64410635D-02  0.86154428D-02
  0.65022032D-02 -0.25889636D-02 -0.16280098D-02 -0.25790410D-03 -0.19312500D-02
 -0.12144218D-02 -0.19238482D-03  0.31971680D-02  0.20104650D-02  0.31849143D-03
 -0.29781456D-04 -0.28803328D-04 -0.89767392D-05 -0.16233703D-04  0.21713889D-04
  0.16387796D-04 -0.13744576D-05 -0.86429583D-06 -0.13691898D-06 -0.49556096D-05
 -0.31162203D-05 -0.49366165D-06 -0.44743210D-04 -0.28135731D-04 -0.44571726D-05
 -0.13776233D-04 -0.13323773D-04 -0.41524381D-05 -0.37262721D-04  0.49841900D-04
  0.37616426D-04 -0.15076666D-03 -0.94806122D-04 -0.15018883D-04  0.14162110D-04
  0.89055150D-05  0.14107832D-05 -0.14635835D-03 -0.92034060D-04 -0.14579741D-04
 -0.30591770D-05 -0.29587028D-05 -0.92209844D-06  0.86986565D-07 -0.11635156D-06
 -0.87812257D-07 -0.12578205D-04 -0.79095128D-05 -0.12529997D-05  0.21144568D-05
  0.13296272D-05  0.21063529D-06 -0.34074617D-05 -0.21427034D-05 -0.33944022D-06
  0.14449978D-02  0.13975390D-02  0.43555187D-03  0.93455521D-03 -0.12500431D-02
 -0.94342617D-03  0.17877632D-02  0.11241935D-02  0.17809113D-03  0.11000596D-02
  0.69174700D-03  0.10958435D-03  0.38745770D-02  0.24364380D-02  0.38597272D-03
 -0.52050816D-04 -0.50341283D-04 -0.15689179D-04  0.42191202D-04  0.40805494D-04
  0.12717290D-04 -0.18020209D-04 -0.17428361D-04 -0.54316589D-05  0.15109888D-05
  0.14613626D-05  0.45544289D-06  0.14080934D-05  0.13618466D-05  0.42442810D-06
 -0.19720788D-02 -0.19073088D-02 -0.59442484D-03 -0.19648652D-02 -0.19003321D-02
 -0.59225050D-03  0.13132779D-05  0.12701452D-05  0.39584878D-06
MO    5     MO 0.0        OCC NO =    2.0000000  ORB. ENERGY =  -14.549805
  0.27045221D-04  0.26156960D-04  0.81519819D-05  0.49358406D-05 -0.66020856D-05
 -0.49826925D-05  0.50420169D-04  0.31705556D-04  0.50226927D-05  0.84869047D-04
  0.53367934D-04  0.84543774D-05  0.17429300D-04  0.10960012D-04  0.17362500D-05
 -0.86192567D-04 -0.83361698D-04 -0.25980200D-04 -0.13615278D-04  0.18211534D-04
  0.13744517D-04  0.12175591D-03  0.76563386D-04  0.12128927D-04 -0.15710017D-03
 -0.98788800D-04 -0.15649806D-04  0.10204595D-03  0.64169233D-04  0.10165485D-04
 -0.30848490D-05 -0.29835316D-05 -0.92983650D-06 -0.47739011D-06  0.63854784D-06
  0.48192158D-06  0.17229820D-04  0.10834573D-04  0.17163784D-05  0.88404467D-05
  0.55591101D-05  0.88065644D-06 -0.97608663D-05 -0.61378946D-05 -0.97234563D-06
  0.34310571D+01  0.33183690D+01  0.10341907D+01 -0.62897252D-02  0.84130156D-02
  0.63494283D-02  0.22403653D-02  0.14088018D-02  0.22317787D-03  0.59516324D-02
  0.37425462D-02  0.59288219D-03 -0.32624186D-03 -0.20514963D-03 -0.32499149D-04
  0.33156878D-03  0.32067889D-03  0.99941603D-04 -0.66306936D-06  0.88690883D-06
  0.66936333D-06 -0.18607769D-04 -0.11701065D-04 -0.18536452D-05  0.80478985D-05
  0.50607346D-05  0.80170538D-06  0.13974950D-04  0.87878233D-05  0.13921389D-05
  0.14710154D-02  0.14227020D-02  0.44339408D-03  0.87059923D-03 -0.11644968D-02
 -0.87886311D-03 -0.30186920D-02 -0.18982345D-02 -0.30071224D-03  0.26600794D-02
  0.16727293D-02  0.26498842D-03 -0.74497138D-03 -0.46845799D-03 -0.74211617D-04
 -0.18766257D-04 -0.18149907D-04 -0.56565332D-05 -0.47554389D-04  0.63607838D-04
  0.48005784D-04  0.13335902D-03  0.83859731D-04  0.13284790D-04 -0.64641609D-04
 -0.40648378D-04 -0.64393860D-05 -0.59388282D-04 -0.37344945D-04 -0.59160667D-05
 -0.61398575D-04 -0.59382028D-04 -0.18506784D-04 -0.62752520D-04  0.83936565D-04
  0.63348177D-04  0.14107319D-03  0.88710605D-04  0.14053250D-04 -0.24781717D-03
 -0.15583408D-03 -0.24686737D-04  0.47265800D-04  0.29722004D-04  0.47084647D-05
  0.32033646D-04  0.30981547D-04  0.96555951D-05  0.13204600D-04 -0.17662219D-04
 -0.13329940D-04 -0.74447091D-04 -0.46814329D-04 -0.74161762D-05 -0.68345549D-05
 -0.42977515D-05 -0.68083605D-06  0.40609039D-04  0.25536054D-04  0.40453399D-05
  0.96884379D-04  0.93702354D-04  0.29202931D-04 -0.45338438D-04 -0.43849363D-04
 -0.13665931D-04  0.21401023D-04  0.20698138D-04  0.64507055D-05 -0.19606942D-02
 -0.18962981D-02 -0.59099328D-03 -0.19621929D-02 -0.18977475D-02 -0.59144500D-03
  0.84465994D-06  0.81691832D-06  0.25459776D-06 -0.20510761D-05 -0.19837116D-05
 -0.61823624D-06 -0.19196654D-05 -0.18566168D-05 -0.57862636D-06
MO    6     MO 0.0        OCC NO =    2.0000000  ORB. ENERGY =  -10.483625
  0.21463223D-02  0.20758295D-02  0.64694538D-03  0.11764526D-02 -0.15736004D-02
 -0.11876197D-02 -0.33604306D-02 -0.21131290D-02 -0.33475513D-03  0.40854620D-02
  0.25690481D-02  0.40698038D-03 -0.18962358D-02 -0.11924039D-02 -0.18889682D-03
  0.16775971D-02  0.16224989D-02  0.50566203D-03  0.16199875D-02 -0.21668642D-02
 -0.16353647D-02  0.38549358D-02  0.24240871D-02  0.38401612D-03  0.10260348D-02
  0.64519824D-03  0.10221024D-03  0.18423793D-02  0.11585375D-02  0.18353181D-03
 -0.33535998D-04 -0.32434558D-04 -0.10108435D-04 -0.17117784D-04  0.22896419D-04
  0.17280269D-04  0.45077447D-04  0.28345908D-04  0.44904681D-05 -0.54691824D-04
 -0.34391687D-04 -0.54482210D-05 -0.48227700D-04 -0.30326872D-04 -0.48042860D-05
 -0.11374295D-03 -0.11000723D-03 -0.34284450D-04 -0.10131399D-03  0.13551564D-03
  0.10227568D-03  0.18060677D-07  0.11357038D-07  0.17991457D-08  0.10566983D-03
  0.66448023D-04  0.10526483D-04  0.40965612D-04  0.25760276D-04  0.40808606D-05
 -0.12532712D-04 -0.12121093D-04 -0.37776152D-05 -0.30056292D-05  0.40202719D-05
  0.30341592D-05  0.31354454D-04  0.19716522D-04  0.31234284D-05  0.19633050D-04
  0.12345789D-04  0.19557803D-05 -0.21351182D-06 -0.13426196D-06 -0.21269350D-07
 -0.18240299D-01 -0.17641223D-01 -0.54979986D-02  0.97887400D-03 -0.13093231D-02
 -0.98816564D-03 -0.15161742D-02 -0.95341100D-03 -0.15103632D-03 -0.36820805D-02
 -0.23153911D-02 -0.36679684D-03 -0.44778137D-03 -0.28157694D-03 -0.44606519D-04
 -0.11425789D-02 -0.11050526D-02 -0.34439661D-03 -0.26612079D-04  0.35595806D-04
  0.26864686D-04 -0.36221816D-04 -0.22777250D-04 -0.36082991D-05 -0.25774102D-03
 -0.16207447D-03 -0.25675319D-04  0.19654143D-04  0.12359052D-04  0.19578816D-05
  0.26861463D+01  0.25979237D+01  0.80965935D+00 -0.55228195D-02  0.73872173D-02
  0.55752431D-02  0.52135257D-03  0.32784048D-03  0.51935441D-04  0.24275055D-03
  0.15264806D-03  0.24182017D-04  0.30361951D-03  0.19092409D-03  0.30245584D-04
 -0.42036089D-02 -0.40655475D-02 -0.12670536D-02  0.24420444D-04 -0.32664317D-04
 -0.24652247D-04 -0.86226730D-04 -0.54221682D-04 -0.85896254D-05 -0.12024993D-03
 -0.75616383D-04 -0.11978906D-04 -0.40803125D-05 -0.25658100D-05 -0.40646741D-06
 -0.18822716D-04 -0.18204511D-04 -0.56735510D-05 -0.53495644D-04 -0.51738658D-04
 -0.16124680D-04 -0.76143363D-04 -0.73642546D-04 -0.22951165D-04 -0.13790552D-03
 -0.13337621D-03 -0.41567539D-04 -0.86875518D-04 -0.84022218D-04 -0.26186055D-04
 -0.13143961D-08 -0.12712267D-08 -0.39618584D-09  0.10181817D-05  0.98474098D-06
  0.30690075D-06 -0.44032027D-03 -0.42585860D-03 -0.13272152D-03
MO    7     MO 0.0        OCC NO =    2.0000000  ORB. ENERGY =  -10.468744
  0.18296795D-03  0.17695863D-03  0.55150277D-04  0.32684630D-04 -0.43718333D-04
 -0.32994878D-04  0.49545905D-03  0.31155794D-03  0.49356013D-04  0.28036811D-03
  0.17630299D-03  0.27929356D-04 -0.13614201D-03 -0.85609747D-04 -0.13562022D-04
  0.29302604D-04  0.28340203D-04  0.88324033D-05  0.17136403D-04 -0.22921323D-04
 -0.17299064D-04  0.44802622D-04  0.28173091D-04  0.44630909D-05  0.43465667D-04
  0.27332378D-04  0.43299078D-05  0.54130661D-04  0.34038812D-04  0.53923197D-05
  0.16933359D-02  0.16377208D-02  0.51040603D-03  0.16226148D-02 -0.21703784D-02
 -0.16380170D-02 -0.14435075D-02 -0.90771626D-03 -0.14379751D-03  0.32588946D-02
  0.20492804D-02  0.32464044D-03  0.25400112D-02  0.15972272D-02  0.25302762D-03
  0.61990159D-04  0.59954183D-04  0.18685100D-04  0.21044393D-04 -0.28148576D-04
 -0.21244150D-04  0.10292475D-03  0.64721842D-04  0.10253027D-04 -0.50059602D-04
 -0.31478821D-04 -0.49867741D-05 -0.25872023D-04 -0.16269022D-04 -0.25772865D-05
  0.21096750D-02  0.20403858D-02  0.63589912D-03  0.11304089D-02 -0.15120132D-02
 -0.11411390D-02 -0.19638084D-02 -0.12348954D-02 -0.19562818D-03 -0.15365669D-02
 -0.96623449D-03 -0.15306778D-03 -0.45251728D-02 -0.28455501D-02 -0.45078295D-03
 -0.26182619D-02 -0.25322689D-02 -0.78919761D-03 -0.98484474D-05  0.13173094D-04
  0.99419306D-05  0.10876473D-03  0.68394180D-04  0.10834787D-04 -0.14602158D-03
 -0.91822287D-04 -0.14546193D-04  0.38749629D-04  0.24366807D-04  0.38601116D-05
 -0.12393179D-01 -0.11986143D-01 -0.37355574D-02  0.97818220D-03 -0.13083977D-02
 -0.98746727D-03  0.32164087D-02  0.20225641D-02  0.32040813D-03 -0.24138299D-02
 -0.15178810D-02 -0.24045786D-03  0.83117410D-03  0.52266458D-03  0.82798850D-04
  0.43136795D-02  0.41720030D-02  0.13002311D-02 -0.10578035D-05  0.14148976D-05
  0.10678443D-05  0.18927469D-03  0.11902101D-03  0.18854927D-04 -0.27928728D-04
 -0.17562333D-04 -0.27821687D-05  0.60472941D-05  0.38027008D-05  0.60241170D-06
  0.26859833D+01  0.25977661D+01  0.80961023D+00 -0.56561099D-02  0.75655039D-02
  0.57097987D-02 -0.19109513D-03 -0.12016574D-03 -0.19036273D-04  0.41800743D-03
  0.26285429D-03  0.41640535D-04 -0.23191585D-03 -0.14583491D-03 -0.23102700D-04
 -0.37995363D-04 -0.36747461D-04 -0.11452578D-04 -0.16715150D-04 -0.16166165D-04
 -0.50382876D-05 -0.41335162D-05 -0.39977570D-05 -0.12459262D-05 -0.38500370D-05
 -0.37235882D-05 -0.11604798D-05 -0.27835448D-05 -0.26921233D-05 -0.83901726D-06
 -0.12592209D-03 -0.12178636D-03 -0.37955490D-04 -0.16233440D-03 -0.15700276D-03
 -0.48930902D-04 -0.24305269D-04 -0.23506998D-04 -0.73261047D-05
MO    8     MO 0.0        OCC NO =    2.0000000  ORB. ENERGY =  -10.432332
 -0.37669465D-04 -0.36432267D-04 -0.11354346D-04 -0.54336270D-04  0.72679151D-04
  0.54852039D-04  0.10604599D-03  0.66684563D-04  0.10563955D-04 -0.11696381D-03
 -0.73549985D-04 -0.11651553D-04  0.20855673D-04  0.13114607D-04  0.20775740D-05
 -0.86076274D-04 -0.83249225D-04 -0.25945147D-04 -0.36495498D-04  0.48815677D-04
  0.36841920D-04 -0.39289798D-04 -0.24706480D-04 -0.39139215D-05 -0.50693713D-03
 -0.31877567D-03 -0.50499422D-04  0.38864154D-05  0.24438823D-05  0.38715202D-06
 -0.17860063D-04 -0.17273476D-04 -0.53833879D-05 -0.21835988D-05  0.29207399D-05
  0.22043259D-05  0.38662222D-04  0.24311843D-04  0.38514043D-05  0.94081671D-05
  0.59161079D-05  0.93721089D-06 -0.44962178D-04 -0.28273424D-04 -0.44789854D-05
  0.22357907D-02  0.21623594D-02  0.67391299D-03  0.10636055D-02 -0.14226582D-02
 -0.10737014D-02  0.39157828D-02  0.24623493D-02  0.39007750D-03 -0.32889998D-02
 -0.20682114D-02 -0.32763943D-03  0.99967476D-03  0.62862231D-03  0.99584336D-04
 -0.46636390D-04 -0.45104686D-04 -0.14057160D-04 -0.14018517D-04  0.18750899D-04
  0.14151583D-04  0.70613108D-04  0.44403417D-04  0.70342473D-05  0.30823835D-05
  0.19382854D-05  0.30705698D-06  0.95688308D-05  0.60171376D-05  0.95321569D-06
  0.26841267D+01  0.25959705D+01  0.80905063D+00 -0.63324453D-02  0.84701572D-02
  0.63925540D-02 -0.32938687D-03 -0.20712730D-03 -0.32812445D-04  0.95504521D-04
  0.60055806D-04  0.95138486D-05 -0.23455060D-03 -0.14749171D-03 -0.23365165D-04
 -0.27400546D-01 -0.26500616D-01 -0.82590844D-02  0.10947948D-02 -0.14643765D-02
 -0.11051868D-02 -0.33133870D-02 -0.20835466D-02 -0.33006879D-03 -0.61827463D-03
 -0.38878768D-03 -0.61590501D-04  0.27113827D-02  0.17049902D-02  0.27009910D-03
  0.21772521D-01  0.21057435D-01  0.65626826D-02  0.98322117D-03 -0.13151377D-02
 -0.99255407D-03  0.13783559D-02  0.86674716D-03  0.13730731D-03  0.40895346D-02
  0.25716091D-02  0.40738608D-03  0.38838052D-03  0.24422410D-03  0.38689200D-04
  0.26372474D-02  0.25506309D-02  0.79492025D-03 -0.17497508D-04  0.23404330D-04
  0.17663597D-04  0.42138179D-04  0.26497618D-04  0.41976679D-05 -0.76922396D-04
 -0.48370867D-04 -0.76627580D-05  0.78192899D-04  0.49169793D-04  0.77893214D-05
 -0.22678730D-02 -0.21933880D-02 -0.68358324D-03  0.38560916D-04  0.37294440D-04
  0.11623048D-04  0.36642474D-04  0.35439006D-04  0.11044790D-04 -0.14881535D-03
 -0.14392772D-03 -0.44855985D-04 -0.12985917D-03 -0.12559413D-03 -0.39142205D-04
  0.22247819D-04  0.21517122D-04  0.67059472D-05  0.37674293D-07  0.36436936D-07
  0.11355801D-07 -0.37896268D-04 -0.36651620D-04 -0.11422709D-04
MO    9     MO 0.0        OCC NO =    2.0000000  ORB. ENERGY =  -10.398075
 -0.55007954D-04 -0.53201298D-04 -0.16580521D-04 -0.19240819D-04  0.25736150D-04
  0.19423457D-04  0.20077382D-04  0.12625196D-04  0.20000432D-05 -0.93129024D-04
 -0.58562030D-04 -0.92772094D-05  0.24650065D-04  0.15500622D-04  0.24555590D-05
 -0.25642726D-04 -0.24800528D-04 -0.77292414D-05 -0.30347789D-05  0.40592620D-05
  0.30635856D-05 -0.54857330D-04 -0.34495761D-04 -0.54647081D-05 -0.19651859D-04
 -0.12357616D-04 -0.19576541D-05  0.53947712D-04  0.33923769D-04  0.53740949D-05
 -0.11091448D-03 -0.10727165D-03 -0.33431888D-04 -0.45917885D-04  0.61418881D-04
  0.46353746D-04  0.44379239D-03  0.27906856D-03  0.44209149D-04 -0.23031418D-03
 -0.14482774D-03 -0.22943147D-04  0.27389820D-03  0.17223454D-03  0.27284844D-04
  0.38434209D-04  0.37171894D-04  0.11584856D-04 -0.37891402D-04  0.50682812D-04
  0.38251074D-04  0.51821225D-05  0.32586577D-05  0.51622612D-06  0.73334824D-04
  0.46114906D-04  0.73053758D-05 -0.11885325D-03 -0.74738111D-04 -0.11839772D-04
  0.25937879D-04  0.25085988D-04  0.78182066D-05 -0.45069550D-04  0.60284165D-04
  0.45497358D-04 -0.37135320D-04 -0.23351686D-04 -0.36992993D-05 -0.39843989D-04
 -0.25054970D-04 -0.39691281D-05  0.60335181D-04  0.37940381D-04  0.60103937D-05
  0.30920515D-01  0.29904976D-01  0.93200747D-02  0.95679793D-03 -0.12797945D-02
 -0.96588002D-03  0.32506657D-02  0.20441058D-02  0.32382071D-03  0.68704503D-03
  0.43203235D-03  0.68441183D-04 -0.27327010D-02 -0.17183957D-02 -0.27222275D-03
  0.26839061D+01  0.25957572D+01  0.80898413D+00 -0.65219879D-02  0.87236857D-02
  0.65838957D-02  0.13088538D-04  0.82304242D-05  0.13038375D-05 -0.27139786D-03
 -0.17066225D-03 -0.27035768D-04  0.29325548D-03  0.18440691D-03  0.29213153D-04
  0.16382418D-02  0.15844361D-02  0.49379953D-03  0.73773769D-05 -0.98678376D-05
 -0.74474043D-05  0.10894118D-03  0.68505135D-04  0.10852364D-04 -0.29632202D-04
 -0.18633524D-04 -0.29518632D-05 -0.48399737D-04 -0.30435054D-04 -0.48214238D-05
  0.15910419D-01  0.15387864D-01  0.47957252D-02  0.99418995D-03 -0.13298094D-02
 -0.10036270D-02 -0.34347229D-02 -0.21598459D-02 -0.34215588D-03  0.24293232D-02
  0.15276236D-02  0.24200125D-03 -0.10387703D-02 -0.65320666D-03 -0.10347891D-03
 -0.95355269D-06 -0.92223465D-06 -0.28742026D-06 -0.22653770D-02 -0.21909740D-02
 -0.68283090D-03 -0.22680391D-02 -0.21935486D-02 -0.68363330D-03  0.74340838D-06
  0.71899222D-06  0.22407847D-06 -0.44504048D-04 -0.43042378D-04 -0.13414429D-04
 -0.46435174D-04 -0.44910078D-04 -0.13996510D-04 -0.29207076D-04 -0.28247812D-04
 -0.88036092D-05  0.92642499D-06  0.89599792D-06  0.27924342D-06
MO   10     MO 0.0        OCC NO =    2.0000000  ORB. ENERGY =   -1.146924
 -0.66295618D+00 -0.64118236D+00 -0.19982853D+00 -0.13209017D+00  0.17668127D+00
  0.13334399D+00  0.18319634D+00  0.11519877D+00  0.18249421D-01 -0.64076021D-02
 -0.40292722D-02 -0.63830440D-03  0.95398479D-01  0.59989124D-01  0.95032851D-02
 -0.57778339D+00 -0.55880694D+00 -0.17415572D+00 -0.11129207D+00  0.14886213D+00
  0.11234847D+00 -0.19980336D+00 -0.12564171D+00 -0.19903758D-01 -0.44967131D-01
 -0.28276539D-01 -0.44794788D-02 -0.96730735D-01 -0.60826882D-01 -0.96360000D-02
 -0.30273302D-01 -0.29279019D-01 -0.91249914D-02 -0.57704475D-02  0.77184397D-02
  0.58252216D-02  0.54448744D-02  0.34238831D-02  0.54240061D-03 -0.76823022D-02
 -0.48308378D-02 -0.76528587D-03 -0.69184053D-02 -0.43504789D-02 -0.68918895D-03
 -0.30293900D-01 -0.29298941D-01 -0.91312003D-02 -0.51836318D-02  0.69335263D-02