 opt cystine b3lyp
GAUSSIAN             63 MOL ORBITALS    270 PRIMITIVES       26 NUCLEI
  S    1    (CENTRE  1)   0.75884525 -1.11721484 -1.56732069  CHARGE = 16.0
  S    2    (CENTRE  2)  -0.98092430 -0.18744309  1.89411160  CHARGE = 16.0
  O    3    (CENTRE  3)   8.89286887 -1.21809629  1.88716677  CHARGE =  8.0
  O    4    (CENTRE  4)  -6.55643993 -3.53726028 -0.59382832  CHARGE =  8.0
  O    5    (CENTRE  5)   7.02627629 -2.67057151 -1.87745207  CHARGE =  8.0
  O    6    (CENTRE  6)  -8.46429253 -0.74353586  2.28881114  CHARGE =  8.0
  N    7    (CENTRE  7)   6.87629997  3.55935680  0.43324880  CHARGE =  7.0
  N    8    (CENTRE  8)  -7.33098909  2.88781851 -2.00589125  CHARGE =  7.0
  C    9    (CENTRE  9)   5.24191372  1.17170851  0.42040811  CHARGE =  6.0
  C   10    (CENTRE 10)  -5.44218423  0.96085393 -0.99883528  CHARGE =  6.0
  C   11    (CENTRE 11)   3.18042215  1.38374738 -1.69220313  CHARGE =  6.0
  C   12    (CENTRE 12)  -3.35268482  2.11424599  0.78643675  CHARGE =  6.0
  C   13    (CENTRE 13)   7.05560982 -1.13481692 -0.08350177  CHARGE =  6.0
  C   14    (CENTRE 14)  -7.00660257 -1.10804513  0.46082701  CHARGE =  6.0
  H   15    (CENTRE 15)   4.28379549  0.84302220  2.27176117  CHARGE =  1.0
  H   16    (CENTRE 16)  -4.50632186  0.05452763 -2.64073615  CHARGE =  1.0
  H   17    (CENTRE 17)   2.30636275  3.27754586 -1.57491040  CHARGE =  1.0
  H   18    (CENTRE 18)   4.10617044  1.23044402 -3.55391500  CHARGE =  1.0
  H   19    (CENTRE 19)  -2.43733935  3.70913593 -0.20978346  CHARGE =  1.0
  H   20    (CENTRE 20)  -4.27306496  2.88283475  2.49594156  CHARGE =  1.0
  H   21    (CENTRE 21)   8.27844344  3.15384826  1.81519107  CHARGE =  1.0
  H   22    (CENTRE 22)   5.74226702  4.93106128  1.36607761  CHARGE =  1.0
  H   23    (CENTRE 23)  -6.19636794  4.39454498 -2.69873340  CHARGE =  1.0
  H   24    (CENTRE 24)  -8.14375778  3.69025955 -0.35230411  CHARGE =  1.0
  H   25    (CENTRE 25)  10.00775929 -2.71626654  1.34933117  CHARGE =  1.0
  H   26    (CENTRE 26)  -7.67800394 -4.67710939  0.51555210  CHARGE =  1.0
CENTRE ASSIGNMENTS    1  1  1  1  1  1  1  1  1  1  1  1  1  1  1  1  1  1  1  1
CENTRE ASSIGNMENTS    1  1  1  1  1  1  1  2  2  2  2  2  2  2  2  2  2  2  2  2
CENTRE ASSIGNMENTS    2  2  2  2  2  2  2  2  2  2  2  2  2  2  3  3  3  3  3  3
CENTRE ASSIGNMENTS    3  3  3  3  3  3  3  3  3  4  4  4  4  4  4  4  4  4  4  4
CENTRE ASSIGNMENTS    4  4  4  4  5  5  5  5  5  5  5  5  5  5  5  5  5  5  5  6
CENTRE ASSIGNMENTS    6  6  6  6  6  6  6  6  6  6  6  6  6  6  7  7  7  7  7  7
CENTRE ASSIGNMENTS    7  7  7  7  7  7  7  7  7  8  8  8  8  8  8  8  8  8  8  8
CENTRE ASSIGNMENTS    8  8  8  8  9  9  9  9  9  9  9  9  9  9  9  9  9  9  9 10
CENTRE ASSIGNMENTS   10 10 10 10 10 10 10 10 10 10 10 10 10 10 11 11 11 11 11 11
CENTRE ASSIGNMENTS   11 11 11 11 11 11 11 11 11 12 12 12 12 12 12 12 12 12 12 12
CENTRE ASSIGNMENTS   12 12 12 12 13 13 13 13 13 13 13 13 13 13 13 13 13 13 13 14
CENTRE ASSIGNMENTS   14 14 14 14 14 14 14 14 14 14 14 14 14 14 15 15 15 16 16 16
CENTRE ASSIGNMENTS   17 17 17 18 18 18 19 19 19 20 20 20 21 21 21 22 22 22 23 23
CENTRE ASSIGNMENTS   23 24 24 24 25 25 25 26 26 26
TYPE ASSIGNMENTS      1  1  1  1  1  1  2  2  2  3  3  3  4  4  4  1  1  1  2  2
TYPE ASSIGNMENTS      2  3  3  3  4  4  4  1  1  1  1  1  1  2  2  2  3  3  3  4
TYPE ASSIGNMENTS      4  4  1  1  1  2  2  2  3  3  3  4  4  4  1  1  1  1  1  1
TYPE ASSIGNMENTS      2  2  2  3  3  3  4  4  4  1  1  1  1  1  1  2  2  2  3  3
TYPE ASSIGNMENTS      3  4  4  4  1  1  1  1  1  1  2  2  2  3  3  3  4  4  4  1
TYPE ASSIGNMENTS      1  1  1  1  1  2  2  2  3  3  3  4  4  4  1  1  1  1  1  1
TYPE ASSIGNMENTS      2  2  2  3  3  3  4  4  4  1  1  1  1  1  1  2  2  2  3  3
TYPE ASSIGNMENTS      3  4  4  4  1  1  1  1  1  1  2  2  2  3  3  3  4  4  4  1
TYPE ASSIGNMENTS      1  1  1  1  1  2  2  2  3  3  3  4  4  4  1  1  1  1  1  1
TYPE ASSIGNMENTS      2  2  2  3  3  3  4  4  4  1  1  1  1  1  1  2  2  2  3  3
TYPE ASSIGNMENTS      3  4  4  4  1  1  1  1  1  1  2  2  2  3  3  3  4  4  4  1
TYPE ASSIGNMENTS      1  1  1  1  1  2  2  2  3  3  3  4  4  4  1  1  1  1  1  1
TYPE ASSIGNMENTS      1  1  1  1  1  1  1  1  1  1  1  1  1  1  1  1  1  1  1  1
TYPE ASSIGNMENTS      1  1  1  1  1  1  1  1  1  1
EXPONENTS  0.5331257D+03 0.9710952D+02 0.2628163D+02 0.3332975D+02 0.7745118D+01
EXPONENTS  0.2518953D+01 0.3332975D+02 0.7745118D+01 0.2518953D+01 0.3332975D+02
EXPONENTS  0.7745118D+01 0.2518953D+01 0.3332975D+02 0.7745118D+01 0.2518953D+01
EXPONENTS  0.2029194D+01 0.5661401D+00 0.2215834D+00 0.2029194D+01 0.5661401D+00
EXPONENTS  0.2215834D+00 0.2029194D+01 0.5661401D+00 0.2215834D+00 0.2029194D+01
EXPONENTS  0.5661401D+00 0.2215834D+00 0.5331257D+03 0.9710952D+02 0.2628163D+02
EXPONENTS  0.3332975D+02 0.7745118D+01 0.2518953D+01 0.3332975D+02 0.7745118D+01
EXPONENTS  0.2518953D+01 0.3332975D+02 0.7745118D+01 0.2518953D+01 0.3332975D+02
EXPONENTS  0.7745118D+01 0.2518953D+01 0.2029194D+01 0.5661401D+00 0.2215834D+00
EXPONENTS  0.2029194D+01 0.5661401D+00 0.2215834D+00 0.2029194D+01 0.5661401D+00
EXPONENTS  0.2215834D+00 0.2029194D+01 0.5661401D+00 0.2215834D+00 0.1307093D+03
EXPONENTS  0.2380887D+02 0.6443608D+01 0.5033151D+01 0.1169596D+01 0.3803890D+00
EXPONENTS  0.5033151D+01 0.1169596D+01 0.3803890D+00 0.5033151D+01 0.1169596D+01
EXPONENTS  0.3803890D+00 0.5033151D+01 0.1169596D+01 0.3803890D+00 0.1307093D+03
EXPONENTS  0.2380887D+02 0.6443608D+01 0.5033151D+01 0.1169596D+01 0.3803890D+00
EXPONENTS  0.5033151D+01 0.1169596D+01 0.3803890D+00 0.5033151D+01 0.1169596D+01
EXPONENTS  0.3803890D+00 0.5033151D+01 0.1169596D+01 0.3803890D+00 0.1307093D+03
EXPONENTS  0.2380887D+02 0.6443608D+01 0.5033151D+01 0.1169596D+01 0.3803890D+00
EXPONENTS  0.5033151D+01 0.1169596D+01 0.3803890D+00 0.5033151D+01 0.1169596D+01
EXPONENTS  0.3803890D+00 0.5033151D+01 0.1169596D+01 0.3803890D+00 0.1307093D+03
EXPONENTS  0.2380887D+02 0.6443608D+01 0.5033151D+01 0.1169596D+01 0.3803890D+00
EXPONENTS  0.5033151D+01 0.1169596D+01 0.3803890D+00 0.5033151D+01 0.1169596D+01
EXPONENTS  0.3803890D+00 0.5033151D+01 0.1169596D+01 0.3803890D+00 0.9910617D+02
EXPONENTS  0.1805231D+02 0.4885660D+01 0.3780456D+01 0.8784966D+00 0.2857144D+00
EXPONENTS  0.3780456D+01 0.8784966D+00 0.2857144D+00 0.3780456D+01 0.8784966D+00
EXPONENTS  0.2857144D+00 0.3780456D+01 0.8784966D+00 0.2857144D+00 0.9910617D+02
EXPONENTS  0.1805231D+02 0.4885660D+01 0.3780456D+01 0.8784966D+00 0.2857144D+00
EXPONENTS  0.3780456D+01 0.8784966D+00 0.2857144D+00 0.3780456D+01 0.8784966D+00
EXPONENTS  0.2857144D+00 0.3780456D+01 0.8784966D+00 0.2857144D+00 0.7161684D+02
EXPONENTS  0.1304510D+02 0.3530512D+01 0.2941249D+01 0.6834831D+00 0.2222899D+00
EXPONENTS  0.2941249D+01 0.6834831D+00 0.2222899D+00 0.2941249D+01 0.6834831D+00
EXPONENTS  0.2222899D+00 0.2941249D+01 0.6834831D+00 0.2222899D+00 0.7161684D+02
EXPONENTS  0.1304510D+02 0.3530512D+01 0.2941249D+01 0.6834831D+00 0.2222899D+00
EXPONENTS  0.2941249D+01 0.6834831D+00 0.2222899D+00 0.2941249D+01 0.6834831D+00
EXPONENTS  0.2222899D+00 0.2941249D+01 0.6834831D+00 0.2222899D+00 0.7161684D+02
EXPONENTS  0.1304510D+02 0.3530512D+01 0.2941249D+01 0.6834831D+00 0.2222899D+00
EXPONENTS  0.2941249D+01 0.6834831D+00 0.2222899D+00 0.2941249D+01 0.6834831D+00
EXPONENTS  0.2222899D+00 0.2941249D+01 0.6834831D+00 0.2222899D+00 0.7161684D+02
EXPONENTS  0.1304510D+02 0.3530512D+01 0.2941249D+01 0.6834831D+00 0.2222899D+00
EXPONENTS  0.2941249D+01 0.6834831D+00 0.2222899D+00 0.2941249D+01 0.6834831D+00
EXPONENTS  0.2222899D+00 0.2941249D+01 0.6834831D+00 0.2222899D+00 0.7161684D+02
EXPONENTS  0.1304510D+02 0.3530512D+01 0.2941249D+01 0.6834831D+00 0.2222899D+00
EXPONENTS  0.2941249D+01 0.6834831D+00 0.2222899D+00 0.2941249D+01 0.6834831D+00
EXPONENTS  0.2222899D+00 0.2941249D+01 0.6834831D+00 0.2222899D+00 0.7161684D+02
EXPONENTS  0.1304510D+02 0.3530512D+01 0.2941249D+01 0.6834831D+00 0.2222899D+00
EXPONENTS  0.2941249D+01 0.6834831D+00 0.2222899D+00 0.2941249D+01 0.6834831D+00
EXPONENTS  0.2222899D+00 0.2941249D+01 0.6834831D+00 0.2222899D+00 0.3425251D+01
EXPONENTS  0.6239137D+00 0.1688554D+00 0.3425251D+01 0.6239137D+00 0.1688554D+00
EXPONENTS  0.3425251D+01 0.6239137D+00 0.1688554D+00 0.3425251D+01 0.6239137D+00
EXPONENTS  0.1688554D+00 0.3425251D+01 0.6239137D+00 0.1688554D+00 0.3425251D+01
EXPONENTS  0.6239137D+00 0.1688554D+00 0.3425251D+01 0.6239137D+00 0.1688554D+00
EXPONENTS  0.3425251D+01 0.6239137D+00 0.1688554D+00 0.3425251D+01 0.6239137D+00
EXPONENTS  0.1688554D+00 0.3425251D+01 0.6239137D+00 0.1688554D+00 0.3425251D+01
EXPONENTS  0.6239137D+00 0.1688554D+00 0.3425251D+01 0.6239137D+00 0.1688554D+00
MO    1     MO 0.0        OCC NO =    2.0000000  ORB. ENERGY =  -87.715507
  0.12040110D+02  0.11644670D+02  0.36291351D+01 -0.17308895D-01  0.23152045D-01
  0.17473194D-01  0.77798293D-03  0.48921654D-03  0.77500119D-04  0.25211680D-02
  0.15853781D-02  0.25115053D-03  0.19997318D-02  0.12574850D-02  0.19920675D-03
  0.72157458D-03 -0.28453723D-03 -0.56195753D-03 -0.32561320D-05 -0.37114487D-04
 -0.89189590D-05 -0.10164690D-04 -0.11586055D-03 -0.27842376D-04 -0.80090659D-05
 -0.91290025D-04 -0.21937848D-04 -0.14732695D+01 -0.14248821D+01 -0.44407351D+00
  0.21742149D-02 -0.29081881D-02 -0.21948530D-02 -0.55711428D-03 -0.35032841D-03
 -0.55497906D-04  0.17105610D-03  0.10756467D-03  0.17040051D-04  0.16801341D-02
  0.10565134D-02  0.16736948D-03 -0.18373701D-03  0.72452690D-04  0.14309317D-03
  0.62624422D-05  0.71381421D-04  0.17153624D-04 -0.26543406D-05 -0.30255067D-04
 -0.72705760D-05 -0.14933156D-04 -0.17021313D-03 -0.40903810D-04 -0.70371275D-06
 -0.68060033D-06 -0.21211340D-06 -0.34701242D-06  0.46415715D-06  0.35030632D-06
 -0.38159203D-06 -0.23995531D-06 -0.38012953D-07  0.14589604D-05  0.91743348D-06
  0.14533688D-06 -0.22282681D-05 -0.14011948D-05 -0.22197280D-06  0.21206784D-06
  0.20510278D-06  0.63921578D-07  0.77861264D-08 -0.10414573D-07 -0.78600337D-08
 -0.10508148D-05 -0.66078053D-06 -0.10467874D-06 -0.97086056D-07 -0.61050318D-07
 -0.96713960D-08  0.17540318D-05  0.11029822D-05  0.17473092D-06  0.61521568D-06
  0.59500983D-06  0.18543857D-06  0.73568159D-06 -0.98403356D-06 -0.74266480D-06
 -0.38728607D-05 -0.24353588D-05 -0.38580174D-06 -0.45168936D-05 -0.28403439D-05
 -0.44995819D-06 -0.49336103D-05 -0.31023865D-05 -0.49147015D-06  0.74648460D-07
  0.72196741D-07  0.22500571D-07  0.73942306D-07 -0.98903807D-07 -0.74644179D-07
  0.60811207D-06  0.38239719D-06  0.60578140D-07 -0.58525054D-06 -0.36802124D-06
 -0.58300748D-07  0.81800716D-06  0.51438485D-06  0.81487203D-07 -0.43716908D-05
 -0.42281090D-05 -0.13177169D-05 -0.14576154D-05  0.19496783D-05  0.14714513D-05
 -0.84408059D-05 -0.53078053D-05 -0.84084553D-06 -0.34952369D-05 -0.21978987D-05
 -0.34818409D-06 -0.68668703D-05 -0.43180723D-05 -0.68405520D-06 -0.83901700D-06
 -0.81146072D-06 -0.25289686D-06 -0.57508791D-06  0.76922653D-06  0.58054674D-06
  0.42234540D-06  0.26558212D-06  0.42072670D-07 -0.13793140D-05 -0.86734963D-06
 -0.13740275D-06  0.59501491D-06  0.37416134D-06  0.59273443D-07 -0.33811081D-05
 -0.32700606D-05 -0.10191350D-05  0.16821756D-05 -0.22500457D-05 -0.16981431D-05
  0.48211808D-05  0.30316879D-05  0.48027029D-06 -0.22904614D-05 -0.14403036D-05
 -0.22816829D-06 -0.23683852D-05 -0.14893042D-05 -0.23593081D-06  0.84873132D-05
  0.82085598D-05  0.25582495D-05  0.44021064D-05 -0.58881729D-05 -0.44438919D-05
 -0.12253928D-05 -0.77055985D-06 -0.12206963D-06  0.66030691D-05  0.41521871D-05
  0.65777619D-06  0.15585166D-04  0.98003707D-05  0.15525434D-05 -0.19403984D-03
 -0.18766689D-03 -0.58487572D-04 -0.77736580D-04  0.10397896D-03  0.78474469D-04
 -0.27876978D-03 -0.17529792D-03 -0.27770135D-04 -0.28417162D-03 -0.17869474D-03
 -0.28308249D-04  0.19708335D-04  0.12393130D-04  0.19632800D-05  0.28580564D-04
  0.27641877D-04  0.86147658D-05  0.13979859D-04 -0.18699191D-04 -0.14112558D-04
 -0.41222793D-04 -0.25921998D-04 -0.41064800D-05  0.34337822D-04  0.21592544D-04
  0.34206217D-05 -0.24521847D-04 -0.15419996D-04 -0.24427864D-05 -0.30403224D-05
 -0.29404675D-05 -0.91641528D-06 -0.74858487D-06  0.10012927D-05  0.75569057D-06
 -0.75796380D-05 -0.47662797D-05 -0.75505879D-06 -0.63574917D-05 -0.39977614D-05
 -0.63331256D-06 -0.23564017D-05 -0.14817686D-05 -0.23473704D-06  0.11173488D-05
  0.10806512D-05  0.33679176D-06  0.14199961D-06 -0.18993595D-06 -0.14334749D-06
 -0.28344765D-05 -0.17823949D-05 -0.28236129D-06  0.18138691D-05  0.11406096D-05
  0.18069172D-06 -0.10428519D-05 -0.65577326D-06 -0.10388550D-06  0.22292709D-05
  0.21560537D-05  0.67194778D-06  0.17951562D-04  0.17361969D-04  0.54109674D-05
 -0.74242270D-06 -0.71803891D-06 -0.22378137D-06  0.93597881D-06  0.90523795D-06
  0.28212313D-06  0.46762258D-05  0.45226420D-05  0.14095100D-05  0.38690201D-05
  0.37419478D-05  0.11662017D-05  0.45694247D-06  0.44193486D-06  0.13773179D-06
  0.11858400D-06  0.11468928D-06  0.35743640D-07 -0.62751977D-06 -0.60690980D-06
 -0.18914728D-06 -0.45171756D-06 -0.43688156D-06 -0.13615690D-06  0.54641855D-08
  0.52847224D-08  0.16470171D-08 -0.81734383D-07 -0.79049937D-07 -0.24636413D-07
MO    2     MO 0.0        OCC NO =    2.0000000  ORB. ENERGY =  -87.715128
  0.14737229D+01  0.14253206D+01  0.44421018D+00 -0.20608385D-02  0.27565379D-02
  0.20804003D-02  0.76456197D-03  0.48077709D-03  0.76163168D-04 -0.85063824D-04
 -0.53490415D-04 -0.84737804D-05 -0.10945302D-02 -0.68826998D-03 -0.10903353D-03
 -0.99852118D-05  0.39374509D-05  0.77764172D-05 -0.72580651D-05 -0.82729866D-04
 -0.19880762D-04  0.28063885D-05  0.31988159D-04  0.76870544D-05  0.12702878D-04
  0.14479168D-03  0.34794797D-04  0.12040160D+02  0.11644718D+02  0.36291501D+01
 -0.17296422D-01  0.23135362D-01  0.17460603D-01 -0.89526416D-03 -0.56296613D-03
 -0.89183293D-04  0.13141098D-02  0.82634750D-03  0.13090733D-03 -0.26321637D-02
 -0.16551752D-02 -0.26220756D-03  0.69782636D-03 -0.27517264D-03 -0.54346258D-03
  0.47046061D-05  0.53624682D-04  0.12886514D-04 -0.57964433D-05 -0.66069809D-04
 -0.15877194D-04  0.85368639D-05  0.97306044D-04  0.23383554D-04  0.11597759D-06
  0.11216848D-06  0.34958015D-07  0.47870237D-07 -0.64030309D-07 -0.48324629D-07
  0.44050693D-06  0.27700258D-06  0.43881862D-07  0.11164116D-07  0.70202958D-08
  0.11121328D-08 -0.55301696D-06 -0.34775191D-06 -0.55089744D-07  0.22037987D-05
  0.21314181D-05  0.66426993D-06  0.11202534D-05 -0.14984295D-05 -0.11308871D-05
  0.15443248D-05  0.97111289D-06  0.15384060D-06 -0.53066979D-05 -0.33369940D-05
 -0.52863592D-06 -0.30639155D-05 -0.19266723D-05 -0.30521726D-06 -0.33740895D-06
 -0.32632725D-06 -0.10170195D-06 -0.89188067D-07  0.11929625D-06  0.90034656D-07
 -0.10674464D-05 -0.67123891D-06 -0.10633552D-06 -0.41992277D-06 -0.26405871D-06
 -0.41831336D-07  0.18310214D-06  0.11513954D-06  0.18240037D-07  0.59311114D-06
  0.57363128D-06  0.17877581D-06  0.21007210D-07 -0.28098840D-07 -0.21206614D-07
 -0.45108012D-05 -0.28365129D-05 -0.44935129D-06  0.10398601D-05  0.65389194D-06
  0.10358747D-06 -0.28748593D-05 -0.18077887D-05 -0.28638410D-06 -0.13142622D-05
 -0.12710972D-05 -0.39614548D-06 -0.65281188D-06  0.87318862D-06  0.65900848D-06
 -0.98625200D-06 -0.62018173D-06 -0.98247205D-07 -0.20784456D-05 -0.13069823D-05
 -0.20704796D-06  0.87415851D-06  0.54969433D-06  0.87080817D-07 -0.26031482D-05
 -0.25176516D-05 -0.78464205D-06 -0.71164468D-06  0.95188225D-06  0.71839973D-06
  0.65038494D-05  0.40897950D-05  0.64789224D-06 -0.20486545D-05 -0.12882489D-05
 -0.20408027D-06  0.50172260D-05  0.31549663D-05  0.49979968D-06  0.91522724D-05
  0.88516794D-05  0.27586818D-05  0.54944075D-05 -0.73492139D-05 -0.55465614D-05
  0.36880452D-05  0.23191418D-05  0.36739102D-06  0.35555686D-05  0.22358369D-05
  0.35419413D-06 -0.19351747D-04 -0.12168898D-04 -0.19277579D-05 -0.12934173D-05
 -0.12509369D-05 -0.38986240D-06  0.26193404D-05 -0.35035793D-05 -0.26442036D-05
 -0.39648895D-05 -0.24932289D-05 -0.39496935D-06  0.28173739D-05  0.17716403D-05
  0.28065759D-06  0.31161632D-05  0.19595271D-05  0.31042201D-06 -0.18850113D-04
 -0.18231009D-04 -0.56818091D-05 -0.48027548D-05  0.64240725D-05  0.48483433D-05
 -0.26138314D-04 -0.16436473D-04 -0.26038135D-05 -0.28681328D-04 -0.18035589D-04
 -0.28571403D-05  0.11417645D-04  0.71797215D-05  0.11373885D-05 -0.19256508D-03
 -0.18624056D-03 -0.58043048D-04 -0.76378551D-04  0.10216248D-03  0.77103549D-04
  0.27058458D-03  0.17015084D-03  0.26954752D-04 -0.26334732D-03 -0.16559986D-03
 -0.26233800D-04  0.11784054D-03  0.74101292D-04  0.11738890D-04 -0.24957324D-06
 -0.24137638D-06 -0.75226473D-07 -0.24620734D-06  0.32932221D-06  0.24854439D-06
 -0.72080178D-06 -0.45325950D-06 -0.71803920D-07  0.13764434D-05  0.86554454D-06
  0.13711680D-06  0.10903643D-06  0.68565035D-07  0.10861853D-07 -0.68897792D-05
 -0.66634945D-05 -0.20767202D-05 -0.18038560D-05  0.24128031D-05  0.18209785D-05
  0.14976955D-04  0.94179112D-05  0.14919554D-05 -0.55709368D-05 -0.35031545D-05
 -0.55495853D-06  0.30290898D-05  0.19047730D-05  0.30174804D-06  0.20895717D-04
  0.20209428D-04  0.62983961D-05  0.46540382D-05  0.45011831D-05  0.14028222D-05
  0.50944922D-05  0.49271710D-05  0.15355840D-05  0.43030355D-05  0.41617086D-05
  0.12970228D-05  0.50264588D-06  0.48613722D-06  0.15150774D-06  0.20242809D-05
  0.19577964D-05  0.61015961D-06 -0.30735452D-06 -0.29725991D-06 -0.92642930D-07
 -0.48662182D-06 -0.47063944D-06 -0.14667776D-06  0.10605593D-05  0.10257267D-05
  0.31967422D-06  0.90754444D-06  0.87773747D-06  0.27355243D-06 -0.25253769D-08
 -0.24424346D-08 -0.76120018D-09  0.28714378D-06  0.27771296D-06  0.86551000D-07
MO    3     MO 0.0        OCC NO =    2.0000000  ORB. ENERGY =  -18.935859
 -0.45021948D-05 -0.43543268D-05 -0.13570535D-05 -0.16719569D-05  0.22363774D-05
  0.16878274D-05  0.36687167D-04  0.23069875D-04  0.36546558D-05 -0.25996891D-04
 -0.16347543D-04 -0.25897254D-05  0.14546251D-04  0.91470729D-05  0.14490500D-05
  0.31342681D-06 -0.12359304D-06 -0.24409474D-06 -0.22276135D-06 -0.25391088D-05
 -0.61017163D-06  0.28379769D-06  0.32348215D-05  0.77735791D-06 -0.14165206D-06
 -0.16145978D-05 -0.38800297D-06  0.13242947D-05  0.12808002D-05  0.39916947D-06
  0.36211126D-06 -0.48435306D-06 -0.36554848D-06 -0.12385263D-04 -0.77881860D-05
 -0.12337795D-05  0.82504343D-07  0.51880945D-07  0.82188133D-08 -0.22270514D-05
 -0.14004297D-05 -0.22185159D-06 -0.50236803D-06  0.19809790D-06  0.39124092D-06
  0.11864320D-06  0.13523351D-05  0.32497880D-06 -0.16609277D-08 -0.18931812D-07
 -0.45494919D-08  0.21488136D-07  0.24492900D-06  0.58858733D-07  0.42244369D+01
  0.40856914D+01  0.12733316D+01 -0.68520174D-02  0.91651269D-02  0.69170580D-02
 -0.80593838D-03 -0.50679568D-03 -0.80284951D-04 -0.39551385D-02 -0.24870972D-02
 -0.39399799D-03 -0.56876078D-02 -0.35765204D-02 -0.56658093D-03  0.84289137D-06
  0.81520783D-06  0.25406467D-06 -0.10935190D-08  0.14626700D-08  0.11038989D-08
  0.59223150D-08  0.37241106D-08  0.58996169D-09 -0.93840978D-09 -0.59009725D-09
 -0.93481319D-10 -0.99237496D-08 -0.62403200D-08 -0.98857154D-09  0.45495450D-02
  0.44001219D-02  0.13713258D-02 -0.52008305D-04  0.69565310D-04  0.52501977D-04
  0.90639111D-03  0.56996305D-03  0.90291723D-04 -0.42092511D-03 -0.26468900D-03
 -0.41931185D-04  0.53275031D-03  0.33500769D-03  0.53070847D-04 -0.17376704D-07
 -0.16805992D-07 -0.52376935D-08  0.82910963D-10 -0.11090011D-09 -0.83697968D-10
 -0.65129726D-08 -0.40955319D-08 -0.64880107D-09  0.20804137D-08  0.13082200D-08
  0.20724402D-09 -0.30671439D-08 -0.19287024D-08 -0.30553886D-09 -0.80499761D-04
 -0.77855864D-04 -0.24264272D-04 -0.44546786D-04  0.59584925D-04  0.44969631D-04
  0.18163937D-03  0.11421971D-03  0.18094321D-04 -0.60179534D-04 -0.37842506D-04
 -0.59948887D-05  0.11074498D-03  0.69639414D-04  0.11032053D-04  0.25293641D-08
  0.24462909D-08  0.76240201D-09  0.20763689D-08 -0.27773111D-08 -0.20960781D-08
 -0.60057972D-08 -0.37766065D-08 -0.59827792D-09  0.48283016D-08  0.30361656D-08
  0.48097965D-09 -0.37199296D-08 -0.23391915D-08 -0.37056724D-09 -0.57449843D-04
 -0.55562987D-04 -0.17316556D-04 -0.55039962D-04  0.73620395D-04  0.55562410D-04
  0.18866412D-03  0.11863706D-03  0.18794104D-04 -0.12888014D-03 -0.81043289D-04
 -0.12838619D-04  0.12304316D-03  0.77372838D-04  0.12257157D-04 -0.40842538D-07
 -0.39501125D-07 -0.12310775D-07 -0.24009779D-07  0.32115019D-07  0.24237684D-07
  0.27812124D-07  0.17489010D-07  0.27705530D-08 -0.44777190D-07 -0.28157099D-07
 -0.44605575D-08 -0.98622660D-07 -0.62016575D-07 -0.98244674D-08  0.26592508D-04
  0.25719116D-04  0.80155251D-05  0.62820909D-05 -0.84028041D-05 -0.63417216D-05
 -0.56444380D-04 -0.35493741D-04 -0.56228049D-05  0.78651241D-04  0.49458011D-04
  0.78349799D-05  0.18968864D-05  0.11928131D-05  0.18896163D-06  0.54034434D-08
  0.52259752D-08  0.16287082D-08 -0.17456073D-07  0.23348908D-07  0.17621770D-07
 -0.15879944D-06 -0.99857352D-07 -0.15819082D-07 -0.17058324D-06 -0.10726732D-06
 -0.16992945D-07  0.30909667D-06  0.19436828D-06  0.30791202D-07  0.16006670D-02
  0.15480955D-02  0.48247374D-03  0.76389494D-03 -0.10217712D-02 -0.77114596D-03
 -0.28942898D-02 -0.18200071D-02 -0.28831970D-03  0.75625074D-05  0.47555076D-05
  0.75335230D-06 -0.32561507D-02 -0.20475550D-02 -0.32436711D-03 -0.99034798D-08
 -0.95782145D-08 -0.29851111D-08 -0.23435209D-08  0.31346486D-08  0.23657660D-08
  0.21930636D-07  0.13790572D-07  0.21846583D-08 -0.76460954D-08 -0.48080700D-08
 -0.76167907D-09  0.85305908D-08  0.53642644D-08  0.84978961D-09 -0.19588539D-04
 -0.18945182D-04 -0.59043856D-05 -0.10190164D-06 -0.98554827D-07 -0.30715235D-07
 -0.68901809D-05 -0.66638830D-05 -0.20768413D-05 -0.63655066D-05 -0.61564408D-05
 -0.19186937D-05  0.59616150D-07  0.57658145D-07  0.17969525D-07 -0.31406822D-07
 -0.30375311D-07 -0.94666577D-08 -0.14000335D-03 -0.13540514D-03 -0.42199869D-04
  0.62294224D-05  0.60248261D-05  0.18776751D-05  0.20764811D-08  0.20082821D-08
  0.62589380D-09  0.61270151D-09  0.59257822D-09  0.18468075D-09 -0.17618895D-02
 -0.17040228D-02 -0.53106948D-03  0.24368081D-09  0.23567747D-09  0.73450374D-10
MO    4     MO 0.0        OCC NO =    2.0000000  ORB. ENERGY =  -18.934754
  0.32408711D-05  0.31344294D-05  0.97686475D-06  0.86488600D-06 -0.11568549D-05
 -0.87309565D-06  0.18212485D-04  0.11452499D-04  0.18142683D-05 -0.89053187D-05
 -0.55999034D-05 -0.88711878D-06  0.11933443D-04  0.75040693D-05  0.11887707D-05
 -0.12889705D-05  0.50827747D-06  0.10038418D-05 -0.17541359D-06 -0.19994230D-05
 -0.48048009D-06  0.85488646D-07  0.97442833D-06  0.23416426D-06 -0.11354118D-06
 -0.12941805D-05 -0.31100370D-06  0.14602435D-04  0.14122839D-04  0.44014722D-05
  0.41515773D-05 -0.55530701D-05 -0.41909848D-05  0.10729893D-03  0.67472448D-04
  0.10688769D-04  0.34670720D-04  0.21801879D-04  0.34537840D-05  0.85822843D-05
  0.53967707D-05  0.85493914D-06 -0.49419458D-05  0.19487488D-05  0.38487549D-05
 -0.96228358D-06 -0.10968432D-04 -0.26358169D-05 -0.31968013D-06 -0.36438216D-05
 -0.87564448D-06 -0.70940446D-07 -0.80860305D-06 -0.19431489D-06 -0.84425792D-06
 -0.81652950D-06 -0.25447658D-06  0.82360423D-09 -0.11016372D-08 -0.83142203D-09
  0.36129816D-08  0.22719398D-08  0.35991343D-09  0.36148281D-08  0.22731009D-08
  0.36009737D-09 -0.10908869D-07 -0.68597897D-08 -0.10867059D-08  0.42244459D+01
  0.40857002D+01  0.12733343D+01 -0.68542467D-02  0.91681087D-02  0.69193084D-02
 -0.40749740D-02 -0.25624530D-02 -0.40593561D-03  0.21080978D-02  0.13256285D-02
  0.21000182D-03  0.53627896D-02  0.33722660D-02  0.53422359D-03  0.16140640D-07
  0.15610524D-07  0.48651186D-08  0.12484114D-08 -0.16698511D-08 -0.12602615D-08
 -0.13630594D-07 -0.85712830D-08 -0.13578352D-08 -0.12754528D-07 -0.80203897D-08
 -0.12705645D-08 -0.62796736D-08 -0.39488273D-08 -0.62556059D-09  0.38818753D-02
  0.37543808D-02  0.11700765D-02 -0.49571285D-04  0.66305598D-04  0.50041824D-04
 -0.14472929D-03 -0.91009663D-04 -0.14417460D-04 -0.11243508D-02 -0.70702194D-03
 -0.11200415D-03 -0.63942215D-04 -0.40208580D-04 -0.63697147D-05 -0.18806208D-07
 -0.18188546D-07 -0.56685753D-08 -0.13637766D-07  0.18241614D-07  0.13767218D-07
 -0.18519520D-07 -0.11645571D-07 -0.18448541D-08 -0.52221140D-07 -0.32838054D-07
 -0.52020995D-08  0.14740645D-07  0.92693130D-08  0.14684149D-08 -0.36966837D-05
 -0.35752715D-05 -0.11142560D-05 -0.17212073D-05  0.23022538D-05  0.17375453D-05
  0.49517127D-05  0.31137698D-05  0.49327345D-06  0.15869947D-04  0.99794486D-05
  0.15809123D-05 -0.11478645D-04 -0.72180799D-05 -0.11434651D-05  0.73481095D-07
  0.71067716D-07  0.22148703D-07  0.67391352D-07 -0.90141378D-07 -0.68031043D-07
 -0.16413302D-07 -0.10321125D-07 -0.16350396D-08 -0.76227076D-07 -0.47933631D-07
 -0.75934924D-08 -0.14950395D-06 -0.94012094D-07 -0.14893095D-07 -0.89441543D-04
 -0.86503967D-04 -0.26959508D-04 -0.67459328D-04  0.90232302D-04  0.68099664D-04
  0.24370192D-04  0.15324631D-04  0.24276790D-05 -0.33581373D-03 -0.21116869D-03
 -0.33452668D-04 -0.13082596D-03 -0.82266873D-04 -0.13032455D-04  0.69821053D-07
  0.67527883D-07  0.21045492D-07  0.40542135D-07 -0.54228381D-07 -0.40926968D-07
  0.35570640D-06  0.22367773D-06  0.35434311D-07 -0.10030000D-07 -0.63071329D-08
 -0.99915583D-09  0.49489563D-06  0.31120365D-06  0.49299887D-07 -0.71220658D-05
 -0.68881519D-05 -0.21467361D-05 -0.20622455D-05  0.27584199D-05  0.20818207D-05
 -0.94163279D-06 -0.59212397D-06 -0.93802384D-07 -0.79030274D-06 -0.49696357D-06
 -0.78727379D-07 -0.60158800D-05 -0.37829468D-05 -0.59928232D-06 -0.83817166D-08
 -0.81064314D-08 -0.25264206D-08 -0.35229366D-08  0.47122123D-08  0.35563769D-08
 -0.17720073D-07 -0.11142857D-07 -0.17652158D-08  0.29597529D-08  0.18611721D-08
  0.29484092D-09 -0.13083713D-07 -0.82273901D-08 -0.13033568D-08  0.16040347D-02
  0.15513526D-02  0.48348883D-03  0.77164157D-03 -0.10321329D-02 -0.77896613D-03
 -0.84480935D-03 -0.53123879D-03 -0.84157149D-04  0.39120487D-02  0.24600012D-02
  0.38970552D-03  0.18418601D-02  0.11582111D-02  0.18348009D-03  0.24306219D-06
  0.23507917D-06  0.73263910D-07 -0.91893616D-04 -0.88875505D-04 -0.27698613D-04
  0.10539415D-07  0.10193264D-07  0.31767950D-08  0.33695464D-07  0.32588786D-07
  0.10156501D-07  0.17293141D-05  0.16725173D-05  0.52125060D-06 -0.82781946D-05
 -0.80063094D-05 -0.24952169D-05 -0.43604707D-08 -0.42172574D-08 -0.13143349D-08
 -0.54819581D-08 -0.53019112D-08 -0.16523741D-08  0.24988229D-05  0.24167528D-05
  0.75319627D-06 -0.14113154D-04 -0.13649629D-04 -0.42539930D-05  0.24343909D-09
  0.23544369D-09  0.73377515D-10 -0.17551075D-02 -0.16974636D-02 -0.52902525D-03
MO    5     MO 0.0        OCC NO =    2.0000000  ORB. ENERGY =  -18.880774
  0.28472657D-05  0.27537514D-05  0.85822403D-06  0.77002388D-06 -0.10299692D-05
 -0.77733308D-06  0.24019784D-04  0.15104284D-04  0.23927724D-05 -0.26693905D-04
 -0.16785844D-04 -0.26591597D-05 -0.66372788D-04 -0.41736990D-04 -0.66118404D-05
 -0.12306956D-05  0.48529802D-06  0.95845763D-06 -0.19103607D-06 -0.21774934D-05
 -0.52327206D-06  0.21623916D-06  0.24647667D-05  0.59230653D-06  0.62088257D-06
  0.70770283D-05  0.17006762D-05 -0.27862182D-05 -0.26947090D-05 -0.83982308D-06
 -0.67696500D-06  0.90549537D-06  0.68339087D-06  0.10101781D-04  0.63522709D-05
  0.10063064D-05 -0.27941320D-05 -0.17570252D-05 -0.27834231D-06 -0.13135880D-04
 -0.82601936D-05 -0.13085534D-05  0.13346912D-05 -0.52630642D-06 -0.10394487D-05
 -0.10772041D-06 -0.12278334D-05 -0.29505987D-06  0.32032541D-07  0.36511768D-06
  0.87741199D-07  0.14573675D-06  0.16611565D-05  0.39919147D-06 -0.48893163D-02
 -0.47287339D-02 -0.14737398D-02 -0.59614254D-04  0.79738880D-04  0.60180122D-04
  0.22347511D-03  0.14052715D-03  0.22261861D-04 -0.70919412D-03 -0.44596029D-03
 -0.70647603D-04 -0.56863067D-03 -0.35757022D-03 -0.56645131D-04 -0.18325788D-07
 -0.17723904D-07 -0.55237668D-08  0.44586329D-10 -0.59637818D-10 -0.45009551D-10
  0.34589049D-08  0.21750522D-08  0.34456481D-09  0.48332348D-09  0.30392677D-09
  0.48147107D-10 -0.32478358D-08 -0.20423263D-08 -0.32353880D-09  0.42246720D+01
  0.40859188D+01  0.12734024D+01 -0.69049041D-02  0.92358671D-02  0.69704467D-02
  0.17128684D-03  0.10770976D-03  0.17063036D-04  0.63589091D-02  0.39986527D-02
  0.63345376D-03  0.74834812D-02  0.47058138D-02  0.74547997D-03  0.29334425D-06
  0.28370979D-06  0.88419949D-07 -0.14671867D-08  0.19624808D-08  0.14811135D-08
  0.22559072D-08  0.14185750D-08  0.22472611D-09  0.10478799D-08  0.65893502D-09
  0.10438638D-09 -0.43688374D-08 -0.27472422D-08 -0.43520932D-09 -0.12110127D-04
 -0.11712388D-04 -0.36502398D-05 -0.75664392D-05  0.10120724D-04  0.76382612D-05
 -0.13951594D-04 -0.87731365D-05 -0.13898122D-05 -0.12801755D-04 -0.80500871D-05
 -0.12752690D-05  0.15153274D-04  0.95287854D-05  0.15095197D-05  0.28450307D-08
  0.27515898D-08  0.85755036D-09  0.25147486D-08 -0.33636794D-08 -0.25386190D-08
  0.52045569D-09  0.32727651D-09  0.51846097D-10  0.79699634D-08  0.50117269D-08
  0.79394174D-09 -0.79510933D-08 -0.49998608D-08 -0.79206196D-09 -0.50195142D-04
 -0.48546556D-04 -0.15129841D-04 -0.11903735D-04  0.15922208D-04  0.12016728D-04
 -0.19809622D-03 -0.12456822D-03 -0.19733699D-04 -0.13276553D-03 -0.83486530D-04
 -0.13225669D-04 -0.39565300D-03 -0.24879722D-03 -0.39413660D-04 -0.13109197D-07
 -0.12678645D-07 -0.39513798D-08 -0.10316619D-07  0.13799311D-07  0.10414546D-07
 -0.29149432D-07 -0.18329945D-07 -0.29037713D-08  0.12119076D-08  0.76208001D-09
  0.12072628D-09 -0.77012753D-08 -0.48427686D-08 -0.76717591D-09 -0.88556800D-05
 -0.85648282D-05 -0.26692828D-05  0.31607931D-05 -0.42278162D-05 -0.31907959D-05
 -0.10648573D-04 -0.66961085D-05 -0.10607761D-05 -0.15596085D-04 -0.98072367D-05
 -0.15536311D-05 -0.97534019D-04 -0.61332009D-04 -0.97160206D-05 -0.10097824D-06
 -0.97661760D-07 -0.30436905D-07 -0.53334420D-07  0.71339096D-07  0.53840680D-07
  0.26959473D-06  0.16952840D-06  0.26856147D-07 -0.88798079D-07 -0.55838615D-07
 -0.88457748D-08  0.36519506D-07  0.22964445D-07  0.36379540D-08  0.18282097D-02
  0.17681648D-02  0.55105975D-03  0.12652922D-02 -0.16924305D-02 -0.12773025D-02