 opt glutamine m062x
GAUSSIAN             39 MOL ORBITALS    180 PRIMITIVES       20 NUCLEI
  O    1    (CENTRE  1)  -4.24846668 -3.27519589 -0.25773287  CHARGE =  8.0
  O    2    (CENTRE  2)  -4.56438114  0.05407108  2.59964111  CHARGE =  8.0
  O    3    (CENTRE  3)   5.46685087 -1.21302883 -1.91098119  CHARGE =  8.0
  N    4    (CENTRE  4)  -2.66514019  3.60621965 -0.71677642  CHARGE =  7.0
  N    5    (CENTRE  5)   6.13020401  0.08569341  2.29300169  CHARGE =  7.0
  C    6    (CENTRE  6)   0.20419261 -0.01036635 -1.90056432  CHARGE =  6.0
  C    7    (CENTRE  7)  -2.57917030  0.88577416 -1.55451959  CHARGE =  6.0
  C    8    (CENTRE  8)   1.81691689  0.55335334  0.46174816  CHARGE =  6.0
  C    9    (CENTRE  9)  -3.91405981 -0.76585015  0.50254274  CHARGE =  6.0
  C   10    (CENTRE 10)   4.61952503 -0.25193216  0.04739757  CHARGE =  6.0
  H   11    (CENTRE 11)   0.22040226 -2.04558910 -2.31168541  CHARGE =  1.0
  H   12    (CENTRE 12)   1.02174620  0.98014825 -3.52971143  CHARGE =  1.0
  H   13    (CENTRE 13)  -3.58132924  0.65131221 -3.36547287  CHARGE =  1.0
  H   14    (CENTRE 14)   1.73558632  2.58967353  0.86541164  CHARGE =  1.0
  H   15    (CENTRE 15)   1.07667604 -0.45212543  2.12201385  CHARGE =  1.0
  H   16    (CENTRE 16)  -3.01546705  3.44116597  1.24721332  CHARGE =  1.0
  H   17    (CENTRE 17)  -4.41013062  4.29435594 -1.38607046  CHARGE =  1.0
  H   18    (CENTRE 18)   5.59953441  1.65106373  3.36094050  CHARGE =  1.0
  H   19    (CENTRE 19)   8.05882749  0.13719309  1.89826805  CHARGE =  1.0
  H   20    (CENTRE 20)  -5.07774339 -4.08323359  1.27847219  CHARGE =  1.0
CENTRE ASSIGNMENTS    1  1  1  1  1  1  1  1  1  1  1  1  1  1  1  2  2  2  2  2
CENTRE ASSIGNMENTS    2  2  2  2  2  2  2  2  2  2  3  3  3  3  3  3  3  3  3  3
CENTRE ASSIGNMENTS    3  3  3  3  3  4  4  4  4  4  4  4  4  4  4  4  4  4  4  4
CENTRE ASSIGNMENTS    5  5  5  5  5  5  5  5  5  5  5  5  5  5  5  6  6  6  6  6
CENTRE ASSIGNMENTS    6  6  6  6  6  6  6  6  6  6  7  7  7  7  7  7  7  7  7  7
CENTRE ASSIGNMENTS    7  7  7  7  7  8  8  8  8  8  8  8  8  8  8  8  8  8  8  8
CENTRE ASSIGNMENTS    9  9  9  9  9  9  9  9  9  9  9  9  9  9  9 10 10 10 10 10
CENTRE ASSIGNMENTS   10 10 10 10 10 10 10 10 10 10 11 11 11 12 12 12 13 13 13 14
CENTRE ASSIGNMENTS   14 14 15 15 15 16 16 16 17 17 17 18 18 18 19 19 19 20 20 20
TYPE ASSIGNMENTS      1  1  1  1  1  1  2  2  2  3  3  3  4  4  4  1  1  1  1  1
TYPE ASSIGNMENTS      1  2  2  2  3  3  3  4  4  4  1  1  1  1  1  1  2  2  2  3
TYPE ASSIGNMENTS      3  3  4  4  4  1  1  1  1  1  1  2  2  2  3  3  3  4  4  4
TYPE ASSIGNMENTS      1  1  1  1  1  1  2  2  2  3  3  3  4  4  4  1  1  1  1  1
TYPE ASSIGNMENTS      1  2  2  2  3  3  3  4  4  4  1  1  1  1  1  1  2  2  2  3
TYPE ASSIGNMENTS      3  3  4  4  4  1  1  1  1  1  1  2  2  2  3  3  3  4  4  4
TYPE ASSIGNMENTS      1  1  1  1  1  1  2  2  2  3  3  3  4  4  4  1  1  1  1  1
TYPE ASSIGNMENTS      1  2  2  2  3  3  3  4  4  4  1  1  1  1  1  1  1  1  1  1
TYPE ASSIGNMENTS      1  1  1  1  1  1  1  1  1  1  1  1  1  1  1  1  1  1  1  1
EXPONENTS  0.1307093D+03 0.2380887D+02 0.6443608D+01 0.5033151D+01 0.1169596D+01
EXPONENTS  0.3803890D+00 0.5033151D+01 0.1169596D+01 0.3803890D+00 0.5033151D+01
EXPONENTS  0.1169596D+01 0.3803890D+00 0.5033151D+01 0.1169596D+01 0.3803890D+00
EXPONENTS  0.1307093D+03 0.2380887D+02 0.6443608D+01 0.5033151D+01 0.1169596D+01
EXPONENTS  0.3803890D+00 0.5033151D+01 0.1169596D+01 0.3803890D+00 0.5033151D+01
EXPONENTS  0.1169596D+01 0.3803890D+00 0.5033151D+01 0.1169596D+01 0.3803890D+00
EXPONENTS  0.1307093D+03 0.2380887D+02 0.6443608D+01 0.5033151D+01 0.1169596D+01
EXPONENTS  0.3803890D+00 0.5033151D+01 0.1169596D+01 0.3803890D+00 0.5033151D+01
EXPONENTS  0.1169596D+01 0.3803890D+00 0.5033151D+01 0.1169596D+01 0.3803890D+00
EXPONENTS  0.9910617D+02 0.1805231D+02 0.4885660D+01 0.3780456D+01 0.8784966D+00
EXPONENTS  0.2857144D+00 0.3780456D+01 0.8784966D+00 0.2857144D+00 0.3780456D+01
EXPONENTS  0.8784966D+00 0.2857144D+00 0.3780456D+01 0.8784966D+00 0.2857144D+00
EXPONENTS  0.9910617D+02 0.1805231D+02 0.4885660D+01 0.3780456D+01 0.8784966D+00
EXPONENTS  0.2857144D+00 0.3780456D+01 0.8784966D+00 0.2857144D+00 0.3780456D+01
EXPONENTS  0.8784966D+00 0.2857144D+00 0.3780456D+01 0.8784966D+00 0.2857144D+00
EXPONENTS  0.7161684D+02 0.1304510D+02 0.3530512D+01 0.2941249D+01 0.6834831D+00
EXPONENTS  0.2222899D+00 0.2941249D+01 0.6834831D+00 0.2222899D+00 0.2941249D+01
EXPONENTS  0.6834831D+00 0.2222899D+00 0.2941249D+01 0.6834831D+00 0.2222899D+00
EXPONENTS  0.7161684D+02 0.1304510D+02 0.3530512D+01 0.2941249D+01 0.6834831D+00
EXPONENTS  0.2222899D+00 0.2941249D+01 0.6834831D+00 0.2222899D+00 0.2941249D+01
EXPONENTS  0.6834831D+00 0.2222899D+00 0.2941249D+01 0.6834831D+00 0.2222899D+00
EXPONENTS  0.7161684D+02 0.1304510D+02 0.3530512D+01 0.2941249D+01 0.6834831D+00
EXPONENTS  0.2222899D+00 0.2941249D+01 0.6834831D+00 0.2222899D+00 0.2941249D+01
EXPONENTS  0.6834831D+00 0.2222899D+00 0.2941249D+01 0.6834831D+00 0.2222899D+00
EXPONENTS  0.7161684D+02 0.1304510D+02 0.3530512D+01 0.2941249D+01 0.6834831D+00
EXPONENTS  0.2222899D+00 0.2941249D+01 0.6834831D+00 0.2222899D+00 0.2941249D+01
EXPONENTS  0.6834831D+00 0.2222899D+00 0.2941249D+01 0.6834831D+00 0.2222899D+00
EXPONENTS  0.7161684D+02 0.1304510D+02 0.3530512D+01 0.2941249D+01 0.6834831D+00
EXPONENTS  0.2222899D+00 0.2941249D+01 0.6834831D+00 0.2222899D+00 0.2941249D+01
EXPONENTS  0.6834831D+00 0.2222899D+00 0.2941249D+01 0.6834831D+00 0.2222899D+00
EXPONENTS  0.3425251D+01 0.6239137D+00 0.1688554D+00 0.3425251D+01 0.6239137D+00
EXPONENTS  0.1688554D+00 0.3425251D+01 0.6239137D+00 0.1688554D+00 0.3425251D+01
EXPONENTS  0.6239137D+00 0.1688554D+00 0.3425251D+01 0.6239137D+00 0.1688554D+00
EXPONENTS  0.3425251D+01 0.6239137D+00 0.1688554D+00 0.3425251D+01 0.6239137D+00
EXPONENTS  0.1688554D+00 0.3425251D+01 0.6239137D+00 0.1688554D+00 0.3425251D+01
EXPONENTS  0.6239137D+00 0.1688554D+00 0.3425251D+01 0.6239137D+00 0.1688554D+00
MO    1     MO 0.0        OCC NO =    2.0000000  ORB. ENERGY =  -19.439774
  0.42264768D+01  0.40876644D+01  0.12739464D+01 -0.63942613D-02  0.85528411D-02
  0.64549568D-02 -0.15539498D-02 -0.97716533D-03 -0.15479941D-03  0.34113909D-02
  0.21451741D-02  0.33983163D-03  0.59942543D-02  0.37693480D-02  0.59712805D-03
  0.34219596D-02  0.33095703D-02  0.10314485D-02 -0.47340855D-04  0.63322218D-04
  0.47790222D-04 -0.31399353D-03 -0.19744756D-03 -0.31279010D-04 -0.97812661D-03
 -0.61507226D-03 -0.97437780D-04  0.15482147D-03  0.97355898D-04  0.15422810D-04
  0.76048610D-05  0.73550904D-05  0.22922604D-05 -0.14119735D-06  0.18886286D-06
  0.14253762D-06 -0.10750868D-05 -0.67604342D-06 -0.10709664D-06 -0.12471557D-05
 -0.78424496D-06 -0.12423758D-06 -0.43689464D-06 -0.27473108D-06 -0.43522018D-07
  0.63755407D-05  0.61661454D-05  0.19217182D-05 -0.25221951D-05  0.33736397D-05
  0.25461362D-05  0.37732736D-04  0.23727357D-04  0.37588120D-05  0.47834235D-04
  0.30079451D-04  0.47650903D-05 -0.22171063D-04 -0.13941759D-04 -0.22086089D-05
  0.61243644D-07  0.59232187D-07  0.18460085D-07  0.13544177D-07 -0.18116431D-07
 -0.13672741D-07  0.54700058D-06  0.34396865D-06  0.54490413D-07  0.36699654D-06
  0.23077727D-06  0.36558997D-07 -0.84698439D-07 -0.53260651D-07 -0.84373820D-08
 -0.39120754D-04 -0.37835890D-04 -0.11791794D-04 -0.15287505D-04  0.20448272D-04
  0.15432616D-04  0.65232997D-05  0.41020259D-05  0.64982982D-06 -0.64394185D-04
 -0.40492792D-04 -0.64147385D-05  0.27071464D-04  0.17023263D-04  0.26967709D-05
 -0.58138369D-04 -0.56228900D-04 -0.17524092D-04 -0.44702702D-04  0.59793476D-04
  0.45127028D-04 -0.87981597D-04 -0.55325189D-04 -0.87644395D-05 -0.25609654D-03
 -0.16104038D-03 -0.25511502D-04 -0.47862704D-04 -0.30097353D-04 -0.47679264D-05
  0.48795206D-05  0.47192599D-05  0.14707872D-05  0.46623172D-05 -0.62362260D-05
 -0.47065728D-05  0.15370070D-06  0.96651125D-07  0.15311162D-07  0.39170765D-06
  0.24631628D-06  0.39020638D-07 -0.16747076D-05 -0.10531011D-05 -0.16682890D-06
  0.14573917D-02  0.14095258D-02  0.43928762D-03  0.73580007D-03 -0.98419203D-03
 -0.74278441D-03  0.47155253D-03  0.29652488D-03  0.46974523D-04  0.39018384D-02
  0.24535807D-02  0.38868840D-03  0.12939663D-02  0.81368076D-03  0.12890070D-03
 -0.57634871D-06 -0.55741938D-06 -0.17372327D-06 -0.45083393D-06  0.60302681D-06
  0.45511333D-06 -0.15949177D-05 -0.10029271D-05 -0.15888050D-06  0.65554096D-06
  0.41222175D-06  0.65302851D-07 -0.23438261D-06 -0.14738607D-06 -0.23348430D-07
 -0.48853450D-04 -0.47248930D-04 -0.14725428D-04  0.28474445D-05  0.27539244D-05
  0.85827794D-06 -0.26861087D-04 -0.25978874D-04 -0.80964803D-05  0.14646601D-05
  0.14165555D-05  0.44147847D-06  0.11408695D-04  0.11033993D-04  0.34388137D-05
 -0.30622856D-04 -0.29617093D-04 -0.92303541D-05  0.43643670D-06  0.42210258D-06
  0.13155094D-06 -0.16748966D-06 -0.16198870D-06 -0.50484804D-07 -0.29138735D-07
 -0.28181715D-07 -0.87830098D-08 -0.16131294D-02 -0.15601485D-02 -0.48623014D-03
MO    2     MO 0.0        OCC NO =    2.0000000  ORB. ENERGY =  -19.384273
 -0.37284308D-02 -0.36059760D-02 -0.11238252D-02 -0.56160396D-04  0.75119066D-04
  0.56693480D-04 -0.33021975D-03 -0.20765104D-03 -0.32895413D-04  0.14691558D-04
  0.92384456D-05  0.14635250D-05  0.81658064D-03  0.51348782D-03  0.81345098D-04
  0.42267483D+01  0.40879269D+01  0.12740283D+01 -0.64133942D-02  0.85784329D-02
  0.64742713D-02  0.26794345D-02  0.16849003D-02  0.26691652D-03 -0.32967944D-02
 -0.20731128D-02 -0.32841590D-03 -0.85761855D-02 -0.53929356D-02 -0.85433160D-03
  0.29761017D-05  0.28783560D-05  0.89705785D-06  0.93087382D-08 -0.12451189D-07
 -0.93970983D-08  0.17102986D-06  0.10754817D-06  0.17037437D-07 -0.10503815D-05
 -0.66050808D-06 -0.10463558D-06  0.20702086D-06  0.13018027D-06  0.20622742D-07
 -0.93835791D-04 -0.90753891D-04 -0.28284024D-04 -0.51162433D-04  0.68433887D-04
  0.51648075D-04 -0.79593139D-04 -0.50050302D-04 -0.79288087D-05  0.46036222D-04
  0.28948812D-04  0.45859782D-05  0.37096135D-03  0.23327045D-03  0.36953959D-04
 -0.59024611D-07 -0.57086034D-07 -0.17791223D-07 -0.36106650D-07  0.48295561D-07
  0.36449380D-07  0.34189249D-06  0.21499117D-06  0.34058214D-07 -0.14123952D-06
 -0.88815198D-07 -0.14069820D-07 -0.11910473D-06 -0.74896250D-07 -0.11864824D-07
 -0.11731512D-04 -0.11346208D-04 -0.35361174D-05 -0.39665525D-05  0.53055844D-05
  0.40042037D-05 -0.19369385D-04 -0.12179989D-04 -0.19295150D-05 -0.37748030D-05
 -0.23736974D-05 -0.37603355D-06 -0.15094154D-05 -0.94916094D-06 -0.15036304D-06
 -0.60191313D-04 -0.58214418D-04 -0.18142891D-04 -0.30600537D-04  0.40930691D-04
  0.30891003D-04 -0.72717092D-04 -0.45726459D-04 -0.72438394D-05  0.25517030D-03
  0.16045793D-03  0.25419232D-04  0.33121062D-03  0.20827412D-03  0.32994120D-04
 -0.13020443D-04 -0.12592806D-04 -0.39246275D-05 -0.22062917D-05  0.29510934D-05
  0.22272342D-05 -0.36421118D-04 -0.22902576D-04 -0.36281529D-05 -0.88610217D-05
 -0.55720482D-05 -0.88270605D-06  0.59343382D-05  0.37316711D-05  0.59115940D-06
  0.16416912D-02  0.15877722D-02  0.49483925D-03  0.11837170D-02 -0.15833171D-02
 -0.11949531D-02  0.16225650D-02  0.10203124D-02  0.16163463D-03 -0.20205756D-02
 -0.12705922D-02 -0.20128314D-03 -0.52208693D-02 -0.32830227D-02 -0.52008596D-03
 -0.17009960D-05 -0.16451293D-05 -0.51271495D-06 -0.12089419D-05  0.16170575D-05
  0.12204174D-05 -0.45808439D-05 -0.28805576D-05 -0.45632872D-06  0.35083088D-05
  0.22061187D-05  0.34948627D-06 -0.80326853D-06 -0.50511681D-06 -0.80018989D-07
 -0.88627894D-05 -0.85717040D-05 -0.26714257D-05  0.22020592D-05  0.21297358D-05
  0.66374561D-06  0.82419711D-05  0.79712756D-05  0.24842984D-05  0.39483595D-05
  0.38186814D-05  0.11901162D-05  0.46278040D-05  0.44758106D-05  0.13949147D-05
 -0.20964926D-03 -0.20276364D-03 -0.63192569D-04  0.24619867D-05  0.23811263D-05
  0.74209308D-06 -0.14912383D-06 -0.14422608D-06 -0.44948969D-07 -0.18956851D-07
 -0.18334241D-07 -0.57139821D-08 -0.31700102D-04 -0.30658959D-04 -0.95550584D-05
MO    3     MO 0.0        OCC NO =    2.0000000  ORB. ENERGY =  -19.355948
 -0.86501956D-05 -0.83660926D-05 -0.26073456D-05 -0.10431127D-06  0.13952476D-06
  0.10530142D-06  0.15578716D-05  0.97963145D-06  0.15519008D-06 -0.15373066D-06
 -0.96669966D-07 -0.15314147D-07 -0.10498558D-05 -0.66017747D-06 -0.10458320D-06
 -0.31185336D-05 -0.30161100D-05 -0.93998973D-06 -0.61284568D-07  0.81973060D-07
  0.61866291D-07 -0.19846576D-06 -0.12480060D-06 -0.19770512D-07 -0.25597478D-06
 -0.16096381D-06 -0.25499372D-07 -0.47212916D-06 -0.29688748D-06 -0.47031965D-07
  0.42267646D+01  0.40879427D+01  0.12740332D+01 -0.64159581D-02  0.85818623D-02
  0.64768595D-02 -0.34595749D-02 -0.21754735D-02 -0.34463155D-03  0.39533796D-02
  0.24859912D-02  0.39382277D-03  0.80854300D-02  0.50843354D-02  0.80544414D-03
  0.19620951D-07  0.18976530D-07  0.59141555D-08  0.15880528D-07 -0.21241490D-07
 -0.16031269D-07  0.57367784D-06  0.36074402D-06  0.57147914D-07 -0.61855661D-06
 -0.38896499D-06 -0.61618590D-07 -0.14618513D-05 -0.91925130D-06 -0.14562485D-06
 -0.93608409D-04 -0.90533977D-04 -0.28215486D-04 -0.60937962D-04  0.81509447D-04
  0.61516395D-04  0.39795574D-03  0.25024525D-03  0.39643052D-04 -0.25854195D-03
 -0.16257812D-03 -0.25755105D-04 -0.45421075D-03 -0.28561991D-03 -0.45246992D-04
 -0.24910232D-05 -0.24092092D-05 -0.75084529D-06  0.26359967D-05 -0.35258586D-05
 -0.26610181D-05 -0.42791248D-04 -0.26908285D-04 -0.42627244D-05 -0.16847565D-04
 -0.10594201D-04 -0.16782995D-05 -0.82823137D-04 -0.52081411D-04 -0.82505706D-05
  0.38194708D-05  0.36940259D-05  0.11512665D-05  0.16040134D-05 -0.21454975D-05
 -0.16192390D-05 -0.62898759D-05 -0.39552427D-05 -0.62657690D-06  0.30701338D-05
  0.19305825D-05  0.30583670D-06  0.25041297D-05  0.15746639D-05  0.24945322D-06
 -0.58626684D-04 -0.56701176D-04 -0.17671280D-04 -0.26651028D-04  0.35647903D-04
  0.26904004D-04 -0.77612361D-06 -0.48804735D-06 -0.77314900D-07 -0.16231345D-03
 -0.10206706D-03 -0.16169137D-04 -0.40747893D-03 -0.25623368D-03 -0.40591721D-04
 -0.41545546D-06 -0.40181044D-06 -0.12522676D-06 -0.17812348D-06  0.23825454D-06
  0.17981426D-06  0.11711784D-05  0.73646840D-06  0.11666897D-06 -0.40201635D-06
 -0.25279867D-06 -0.40047556D-07 -0.11790413D-05 -0.74141278D-06 -0.11745224D-06
  0.16617251D-02  0.16071481D-02  0.50087788D-03  0.11994706D-02 -0.16043889D-02
 -0.12108562D-02 -0.21666427D-02 -0.13624431D-02 -0.21583387D-03  0.24237400D-02
  0.15241128D-02  0.24144507D-03  0.48883365D-02  0.30739172D-02  0.48696012D-03
 -0.21166968D-04 -0.20471770D-04 -0.63801566D-05 -0.26686719D-04 -0.25810233D-04
 -0.80439222D-05  0.66527142D-06  0.64342156D-06  0.20052639D-06  0.10645522D-04
  0.10295885D-04  0.32087777D-05  0.10224824D-04  0.98890046D-05  0.30819708D-05
  0.44057871D-06  0.42610855D-06  0.13279942D-06 -0.58664289D-07 -0.56737546D-07
 -0.17682615D-07  0.20343976D-05  0.19675808D-05  0.61320900D-06 -0.43279198D-04
 -0.41857756D-04 -0.13045234D-04  0.74001903D-07  0.71571419D-07  0.22305685D-07
MO    4     MO 0.0        OCC NO =    2.0000000  ORB. ENERGY =  -14.564676
  0.13557214D-06  0.13111948D-06  0.40864213D-07  0.59003436D-07 -0.78921862D-07
 -0.59563506D-07 -0.19254016D-06 -0.12107442D-06 -0.19180223D-07 -0.24941432D-06
 -0.15683842D-06 -0.24845841D-07 -0.26843111D-06 -0.16879668D-06 -0.26740231D-07
 -0.44024928D-07 -0.42578993D-07 -0.13270012D-07  0.38626607D-07 -0.51666208D-07
 -0.38993258D-07  0.74464147D-08  0.46825054D-08  0.74178753D-09  0.37784069D-06
  0.23759637D-06  0.37639257D-07  0.52265084D-06  0.32865688D-06  0.52064771D-07
 -0.18968548D-03 -0.18345554D-03 -0.57175079D-04 -0.69131885D-04  0.92469481D-04
  0.69788097D-04  0.61808936D-03  0.38867117D-03  0.61572044D-04  0.51795836D-04
  0.32570612D-04  0.51597321D-05  0.53805639D-03  0.33834430D-03  0.53599421D-04
 -0.56627697D-04 -0.54767844D-04 -0.17068745D-04  0.37766970D-06 -0.50516373D-06
 -0.38125460D-06 -0.43756482D-05 -0.27515250D-05 -0.43588779D-06  0.44187874D-06
  0.27786521D-06  0.44018518D-07 -0.97895168D-06 -0.61559109D-06 -0.97519971D-07
  0.34307740D+01  0.33180953D+01  0.10341054D+01 -0.64400484D-02  0.86140850D-02
  0.65011784D-02  0.67069504D-03  0.42175104D-03  0.66812450D-04  0.36222374D-02
  0.22777601D-02  0.36083547D-03 -0.26733853D-02 -0.16810964D-02 -0.26631392D-03
  0.20568611D-04  0.19893065D-04  0.61997994D-05  0.61617746D-05 -0.82418713D-05
 -0.62202632D-05 -0.76669296D-04 -0.48211711D-04 -0.76375450D-05  0.15011050D-04
  0.94393511D-05  0.14953518D-05  0.57698731D-05  0.36282511D-05  0.57477593D-06
  0.34878220D-05  0.33732696D-05  0.10513008D-05  0.26905540D-05 -0.35988333D-05
 -0.27160932D-05 -0.96858517D-05 -0.60907235D-05 -0.96487293D-06  0.48331715D-05
  0.30392279D-05  0.48146477D-06  0.34689044D-05  0.21813402D-05  0.34556093D-06
 -0.28765570D-04 -0.27820807D-04 -0.86705303D-05 -0.44434584D-04  0.59434845D-04
  0.44856364D-04  0.18752452D-03  0.11792045D-03  0.18680580D-04 -0.12380757D-04
 -0.77853523D-05 -0.12333306D-05  0.13532916D-03  0.85098609D-04  0.13481049D-04
 -0.82867826D-06 -0.80146154D-06 -0.24978055D-06 -0.36265960D-06  0.48508651D-06
  0.36610203D-06  0.20100177D-05  0.12639531D-05  0.20023140D-06 -0.70787274D-07
 -0.44512937D-07 -0.70515972D-08  0.49413687D-06  0.31072653D-06  0.49224302D-07
  0.14453841D-02  0.13979126D-02  0.43566830D-03  0.93371002D-03 -0.12489126D-02
 -0.94257296D-03 -0.24944601D-02 -0.15685834D-02 -0.24848997D-03 -0.63597110D-03
 -0.39991569D-03 -0.63353365D-04 -0.35726465D-02 -0.22465760D-02 -0.35589538D-03
 -0.12434299D-05 -0.12025913D-05 -0.37479517D-06 -0.28210806D-05 -0.27284263D-05
 -0.85033130D-06  0.55080898D-06  0.53271847D-06  0.16602508D-06  0.38113052D-04
  0.36861284D-04  0.11488052D-04 -0.17395003D-04 -0.16823689D-04 -0.52432091D-05
 -0.76266080D-06 -0.73761232D-06 -0.22988154D-06 -0.26821360D-06 -0.25940451D-06
 -0.80845057D-07 -0.19741139D-02 -0.19092770D-02 -0.59503825D-03 -0.19654874D-02
 -0.19009338D-02 -0.59243805D-03  0.26019854D-07  0.25165270D-07  0.78429155D-08
MO    5     MO 0.0        OCC NO =    2.0000000  ORB. ENERGY =  -14.540882
  0.25714446D-04  0.24869893D-04  0.77508593D-05  0.47151269D-05 -0.63068632D-05
 -0.47598837D-05 -0.47231898D-04 -0.29700685D-04 -0.47050875D-05 -0.31496595D-04
 -0.19805904D-04 -0.31375880D-05  0.77752689D-04  0.48892977D-04  0.77454691D-05
 -0.20409986D-03 -0.19739650D-03 -0.61519867D-04 -0.49915921D-04  0.66766577D-04
  0.50389732D-04  0.12864558D-03  0.80895792D-04  0.12815253D-04  0.43238516D-03
  0.27189539D-03  0.43072798D-04  0.44691251D-04  0.28103058D-04  0.44519966D-05
 -0.38576963D-07 -0.37309959D-07 -0.11627885D-07  0.40824267D-06 -0.54605755D-06
 -0.41211778D-06 -0.28062407D-05 -0.17646395D-05 -0.27954854D-06 -0.38939324D-05
 -0.24486092D-05 -0.38790084D-06 -0.38798238D-05 -0.24397373D-05 -0.38649538D-06
  0.34310560D+01  0.33183680D+01  0.10341904D+01 -0.62847861D-02  0.84064092D-02
  0.63444424D-02 -0.52139603D-02 -0.32786782D-02 -0.51939771D-03 -0.32942151D-02
 -0.20714909D-02 -0.32815896D-03  0.17633553D-02  0.11088452D-02  0.17565970D-03
  0.59324097D-04  0.57375684D-04  0.17881495D-04  0.32857426D-06 -0.43949462D-06
 -0.33169315D-06  0.84153183D-06  0.52917780D-06  0.83830654D-07 -0.26828131D-05
 -0.16870248D-05 -0.26725308D-06 -0.42863365D-05 -0.26953634D-05 -0.42699085D-06
 -0.11496551D-04 -0.11118964D-04 -0.34652953D-05 -0.41538759D-04  0.55561446D-04
  0.41933052D-04 -0.58173869D-04 -0.36581290D-04 -0.57950909D-05  0.10132702D-03
  0.63717148D-04  0.10093867D-04  0.44150191D-04  0.27762825D-04  0.43980979D-05
  0.14819495D-02  0.14332771D-02  0.44668986D-03  0.87067909D-03 -0.11646036D-02
 -0.87894373D-03  0.24733043D-03  0.15552801D-03  0.24638250D-04 -0.38659174D-02
 -0.24309926D-02 -0.38511008D-03 -0.12072342D-02 -0.75914128D-03 -0.12026073D-03
 -0.25683864D-04 -0.24840315D-04 -0.77416413D-05 -0.17577839D-04  0.23511780D-04
  0.17744691D-04  0.16860656D-04  0.10602433D-04  0.16796035D-05  0.57465917D-04
  0.36136111D-04  0.57245670D-05  0.60794821D-04  0.38229415D-04  0.60561816D-05
 -0.63161010D-04 -0.61086579D-04 -0.19038019D-04 -0.71044471D-04  0.95027719D-04
  0.71718837D-04  0.73790366D-04  0.46401362D-04  0.73507554D-05  0.29521116D-03
  0.18563670D-03  0.29407972D-04 -0.81569440D-05 -0.51293053D-05 -0.81256814D-06
  0.62774813D-06  0.60713066D-06  0.18921611D-06  0.82331367D-06 -0.11012485D-05
 -0.83112871D-06  0.62451928D-05  0.39271448D-05  0.62212572D-06  0.26691773D-05
  0.16784503D-05  0.26589473D-06 -0.10883283D-04 -0.68437001D-05 -0.10841571D-05
 -0.27380921D-04 -0.26481635D-04 -0.82531689D-05 -0.16843454D-04 -0.16290255D-04
 -0.50769609D-05  0.12422834D-03  0.12014825D-03  0.37444960D-04 -0.83926074D-04
 -0.81169645D-04 -0.25297033D-04  0.11808021D-04  0.11420204D-04  0.35591787D-05
 -0.19614468D-02 -0.18970260D-02 -0.59122013D-03 -0.19680318D-02 -0.19033946D-02
 -0.59320497D-03  0.28134046D-05  0.27210024D-05  0.84801761D-06 -0.23528893D-06
 -0.22756121D-06 -0.70920890D-07 -0.13490915D-05 -0.13047826D-05 -0.40664374D-06
MO    6     MO 0.0        OCC NO =    2.0000000  ORB. ENERGY =  -10.489301
  0.21364674D-02  0.20662982D-02  0.64397491D-03  0.11754971D-02 -0.15723224D-02
 -0.11866551D-02 -0.93664549D-03 -0.58898782D-03 -0.93305566D-04 -0.54056902D-02
 -0.33992431D-02 -0.53849722D-03 -0.11229032D-02 -0.70611168D-03 -0.11185995D-03
  0.16853758D-02  0.16300221D-02  0.50800669D-03  0.16218366D-02 -0.21693374D-02
 -0.16372313D-02 -0.11874856D-02 -0.74672279D-03 -0.11829344D-03  0.17441197D-02
  0.10967493D-02  0.17374351D-03  0.39512900D-02  0.24846772D-02  0.39361461D-03
 -0.87808006D-06 -0.84924081D-06 -0.26467127D-06  0.91626387D-07 -0.12255769D-06
 -0.92496120D-07 -0.52221560D-05 -0.32838318D-05 -0.52021414D-06  0.24219359D-05
  0.15229783D-05  0.24126535D-06 -0.79797708D-05 -0.50178940D-05 -0.79491871D-06
 -0.11435470D-03 -0.11059889D-03 -0.34468842D-04 -0.10979005D-03  0.14685306D-03
  0.11083220D-03  0.10785091D-04  0.67819547D-05  0.10743756D-05 -0.77173159D-04
 -0.48528553D-04 -0.76877382D-05  0.17650296D-03  0.11098980D-03  0.17582649D-04
 -0.18143216D-05 -0.17547329D-05 -0.54687360D-06 -0.48876393D-06  0.65376124D-06
  0.49340336D-06 -0.72247390D-05 -0.45431098D-05 -0.71970492D-06 -0.25969592D-05
 -0.16330376D-05 -0.25870060D-06  0.81689348D-06  0.51368454D-06  0.81376262D-07
 -0.10310370D-02 -0.99717409D-03 -0.31077561D-03 -0.18444846D-04  0.24671472D-04
  0.18619928D-04  0.86231901D-04  0.54224934D-04  0.85901405D-05  0.11973943D-03
  0.75295365D-04  0.11928051D-04 -0.22621364D-03 -0.14224921D-03 -0.22534664D-04
 -0.14545151D-01 -0.14067436D-01 -0.43842055D-02  0.97293899D-03 -0.13013845D-02
 -0.98217430D-03  0.18375668D-02  0.11555113D-02  0.18305241D-03  0.20997637D-02
  0.13203878D-02  0.20917161D-03 -0.28889459D-02 -0.18166467D-02 -0.28778736D-03
  0.10391825D-03  0.10050521D-03  0.31323083D-04 -0.39946072D-04  0.53431099D-04
  0.40325247D-04  0.68659746D-04  0.43175091D-04  0.68396598D-05 -0.55635448D-04
 -0.34985063D-04 -0.55422217D-05  0.10761583D-03  0.67671720D-04  0.10720337D-04
  0.26861436D+01  0.25979212D+01  0.80965855D+00 -0.55341119D-02  0.74023217D-02
  0.55866426D-02 -0.12727448D-03 -0.80033608D-04 -0.12678668D-04  0.21496469D-03
  0.13517556D-03  0.21414080D-04  0.70240373D-03  0.44169031D-03  0.69971166D-04
 -0.79862773D-04 -0.77239798D-04 -0.24072271D-04  0.55590724D-05 -0.74357085D-05
 -0.56118401D-05  0.22709297D-04  0.14280215D-04  0.22622260D-05 -0.23931067D-04
 -0.15048497D-04 -0.23839347D-05 -0.37996805D-05 -0.23893411D-05 -0.37851177D-06
 -0.56083234D-04 -0.54241262D-04 -0.16904632D-04 -0.51728047D-04 -0.50029115D-04
 -0.15591890D-04 -0.21481482D-04 -0.20775954D-04 -0.64749574D-05  0.18169173D-05
  0.17572433D-05  0.54765597D-06 -0.17379835D-03 -0.16809020D-03 -0.52386372D-04
 -0.25464771D-03 -0.24628418D-03 -0.76756021D-04 -0.26585455D-04 -0.25712294D-04
 -0.80133990D-05  0.16527171D-05  0.15984361D-05  0.49816270D-06  0.32564790D-06
  0.31495247D-06  0.98156930D-07 -0.44281414D-03 -0.42827056D-03 -0.13347323D-03
MO    7     MO 0.0        OCC NO =    2.0000000  ORB. ENERGY =  -10.461417
 -0.83206012D-06 -0.80473232D-06 -0.25079992D-06  0.25278271D-07 -0.33811730D-07
 -0.25518217D-07  0.49293499D-05  0.30997075D-05  0.49104575D-06 -0.18185869D-05
 -0.11435762D-05 -0.18116169D-06 -0.18877026D-05 -0.11870380D-05 -0.18804677D-06
 -0.20510091D-05 -0.19836467D-05 -0.61821603D-06 -0.10877477D-05  0.14549504D-05
  0.10980728D-05  0.36452513D-06  0.22922318D-06  0.36312803D-07 -0.94401598D-06
 -0.59362258D-06 -0.94039790D-07 -0.55078033D-05 -0.34634545D-05 -0.54866939D-06
  0.16953714D-02  0.16396894D-02  0.51101957D-03  0.16266432D-02 -0.21757668D-02
 -0.16420836D-02  0.14635168D-02  0.92029867D-03  0.14579077D-03 -0.17358062D-02
 -0.10915215D-02 -0.17291535D-03 -0.37628932D-02 -0.23662082D-02 -0.37484714D-03
 -0.72869354D-06 -0.70476067D-06 -0.21964312D-06 -0.24380075D-05  0.32610320D-05
  0.24611495D-05 -0.14226462D-04 -0.89459810D-05 -0.14171937D-05 -0.23413834D-05
 -0.14723247D-05 -0.23324097D-06 -0.70949849D-05 -0.44615169D-05 -0.70677924D-06
  0.21169298D-02  0.20474023D-02  0.63808588D-03  0.11305900D-02 -0.15122555D-02
 -0.11413218D-02  0.27393995D-02  0.17226079D-02  0.27289004D-03  0.92680035D-03
  0.58279693D-03  0.92324826D-04  0.42853766D-02  0.26947598D-02  0.42689522D-03
 -0.90705639D-03 -0.87726545D-03 -0.27340532D-03 -0.42951517D-04  0.57451124D-04
  0.43359220D-04 -0.15724169D-03 -0.98877794D-04 -0.15663904D-04  0.68891517D-04
  0.43320835D-04  0.68627481D-05  0.50488151D-04  0.31748304D-04  0.50294648D-05
 -0.84758586D-03 -0.81974814D-03 -0.25547969D-03  0.23306856D-04 -0.31174802D-04
 -0.23528088D-04 -0.88686838D-04 -0.55768664D-04 -0.88346933D-05  0.13607061D-04
  0.85564851D-05  0.13554910D-05 -0.34716332D-04 -0.21830561D-04 -0.34583277D-05
 -0.11601297D-01 -0.11220269D-01 -0.34968678D-02  0.97373818D-03 -0.13024535D-02
 -0.98298107D-03 -0.38534492D-02 -0.24231522D-02 -0.38386803D-03  0.11979847D-02
  0.75332491D-03  0.11933932D-03  0.73292568D-03  0.46088334D-03  0.73011664D-04
  0.83058309D-04  0.80330380D-04  0.25035471D-04 -0.82383464D-06  0.11019454D-05
  0.83165463D-06 -0.11029023D-05 -0.69353455D-06 -0.10986753D-06 -0.15104930D-05
 -0.94983853D-06 -0.15047038D-06 -0.11123841D-04 -0.69949698D-05 -0.11081207D-05
  0.26859887D+01  0.25977713D+01  0.80961185D+00 -0.56571537D-02  0.75669001D-02
  0.57108524D-02  0.40855696D-03  0.25691158D-03  0.40699111D-04 -0.37756592D-03
 -0.23742358D-03 -0.37611884D-04 -0.17671157D-05 -0.11112098D-05 -0.17603430D-06
 -0.51763754D-04 -0.50063649D-04 -0.15602653D-04 -0.60960107D-04 -0.58957961D-04
 -0.18374621D-04  0.87833068D-07  0.84948319D-07  0.26474681D-07 -0.26051497D-04
 -0.25195874D-04 -0.78524533D-05 -0.24509340D-04 -0.23704367D-04 -0.73876157D-05
 -0.42742346D-05 -0.41338536D-05 -0.12883416D-05 -0.15783068D-05 -0.15264697D-05
 -0.47573392D-06 -0.12481065D-03 -0.12071143D-03 -0.37620480D-04 -0.16288050D-03
 -0.15753093D-03 -0.49095509D-04  0.30054103D-06  0.29067020D-06  0.90589205D-07
MO    8     MO 0.0        OCC NO =    2.0000000  ORB. ENERGY =  -10.426663
 -0.49601689D-04 -0.47972594D-04 -0.14950962D-04 -0.56455382D-04  0.75513635D-04
  0.56991267D-04  0.18625467D-04  0.11712193D-04  0.18554082D-05  0.18181602D-03
  0.11433079D-03  0.18111918D-04 -0.96504347D-05 -0.60684523D-05 -0.96134480D-06
 -0.95645069D-04 -0.92503747D-04 -0.28829377D-04 -0.45550897D-04  0.60928005D-04
  0.45983274D-04  0.20913418D-03  0.13150919D-03  0.20833264D-04  0.37427691D-03
  0.23535536D-03  0.37284243D-04 -0.28706529D-03 -0.18051436D-03 -0.28596507D-04
  0.73729800D-05  0.71308252D-05  0.22223668D-05 -0.11287242D-05  0.15097598D-05
  0.11394382D-05  0.20750531D-04  0.13048491D-04  0.20671002D-05  0.80267137D-05
  0.50474130D-05  0.79959502D-06  0.33149841D-04  0.20845509D-04  0.33022789D-05
  0.22610583D-02  0.21867972D-02  0.68152917D-03  0.10629844D-02 -0.14218275D-02
 -0.10730744D-02 -0.34220897D-03 -0.21519019D-03 -0.34089741D-04  0.48881287D-02
  0.30737865D-02  0.48693942D-03  0.16463226D-02  0.10352518D-02  0.16400128D-03
  0.58599709D-05  0.56675087D-05  0.17663149D-05  0.28039605D-05 -0.37505237D-05
 -0.28305762D-05  0.25870676D-05  0.16268175D-05  0.25771522D-06  0.60843532D-06
  0.38260046D-06  0.60610340D-07  0.11230992D-04  0.70623489D-05  0.11187947D-05
 -0.23850776D-01 -0.23067432D-01 -0.71891110D-02  0.10784108D-02 -0.14424616D-02
 -0.10886473D-02  0.40365591D-02  0.25382967D-02  0.40210884D-03 -0.13488918D-02
 -0.84821936D-03 -0.13437220D-03 -0.50472740D-03 -0.31738613D-03 -0.50279296D-04
  0.26841892D+01  0.25960309D+01  0.80906945D+00 -0.63299531D-02  0.84668236D-02
  0.63900381D-02 -0.21536408D-03 -0.13542671D-03 -0.21453866D-04 -0.35163043D-03
 -0.22111465D-03 -0.35028276D-04 -0.16292848D-03 -0.10245380D-03 -0.16230403D-04
 -0.17931930D-02 -0.17342982D-02 -0.54050499D-03 -0.25485636D-04  0.34089097D-04
  0.25727550D-04  0.85781766D-04  0.53941877D-04  0.85452995D-05 -0.50875689D-04
 -0.31991999D-04 -0.50680701D-05 -0.98197079D-04 -0.61748958D-04 -0.97820725D-05
  0.18075326D-01  0.17481669D-01  0.54482725D-02  0.10036426D-02 -0.13424531D-02
 -0.10131694D-02 -0.19537302D-02 -0.12285580D-02 -0.19462422D-03 -0.24868910D-02
 -0.15638238D-02 -0.24773596D-03  0.30103877D-02  0.18930126D-02  0.29988499D-03
  0.91497012D-03  0.88491927D-03  0.27579068D-03  0.16507702D-04 -0.22080385D-04
 -0.16664396D-04  0.78476713D-04  0.49348263D-04  0.78175940D-05  0.40737054D-05
  0.25616553D-05  0.40580923D-06  0.47975149D-04  0.30168061D-04  0.47791278D-05
  0.42795275D-04  0.41389727D-04  0.12899370D-04  0.43004405D-04  0.41591988D-04
  0.12962406D-04 -0.22679850D-02 -0.21934964D-02 -0.68361702D-03 -0.20200035D-04
 -0.19536595D-04 -0.60887032D-05 -0.72249996D-05 -0.69877050D-05 -0.21777624D-05
 -0.13164006D-03 -0.12731654D-03 -0.39679003D-04 -0.11801227D-03 -0.11413633D-03
 -0.35571310D-04  0.11678456D-05  0.11294894D-05  0.35201252D-06  0.87831049D-08
  0.84946367D-08  0.26474072D-08 -0.36626991D-04 -0.35424031D-04 -0.11040123D-04
MO    9     MO 0.0        OCC NO =    2.0000000  ORB. ENERGY =  -10.387895