 opt glutamate m062x
GAUSSIAN             39 MOL ORBITALS    177 PRIMITIVES       19 NUCLEI
  O    1    (CENTRE  1)   4.23807880 -3.09328455  1.14197489  CHARGE =  8.0
  O    2    (CENTRE  2)  -5.96180534 -0.58881784 -2.31810901  CHARGE =  8.0
  O    3    (CENTRE  3)   4.61242437 -0.62972478 -2.48257663  CHARGE =  8.0
  O    4    (CENTRE  4)  -5.62973480 -0.36339966  2.04136689  CHARGE =  8.0
  N    5    (CENTRE  5)   2.65845559  3.66840697 -0.23658246  CHARGE =  7.0
  C    6    (CENTRE  6)  -0.22469924  0.47955143  1.81350872  CHARGE =  6.0
  C    7    (CENTRE  7)   2.56305853  1.26013734  1.27737791  CHARGE =  6.0
  C    8    (CENTRE  8)  -1.80249355  0.38575113 -0.63836846  CHARGE =  6.0
  C    9    (CENTRE  9)   3.92451074 -0.87068014 -0.25561858  CHARGE =  6.0
  C   10    (CENTRE 10)  -4.61203687 -0.21449430 -0.05873822  CHARGE =  6.0
  H   11    (CENTRE 11)  -1.06709635  1.86858815  3.10393943  CHARGE =  1.0
  H   12    (CENTRE 12)  -0.24416473 -1.37117882  2.75502751  CHARGE =  1.0
  H   13    (CENTRE 13)   3.54034852  1.51078465  3.09977488  CHARGE =  1.0
  H   14    (CENTRE 14)  -1.69386022  2.22814255 -1.59337920  CHARGE =  1.0
  H   15    (CENTRE 15)  -1.07199307 -1.05072157 -1.94876693  CHARGE =  1.0
  H   16    (CENTRE 16)   3.00739257  3.00393805 -2.09174068  CHARGE =  1.0
  H   17    (CENTRE 17)   4.40441775  4.50247939  0.23438408  CHARGE =  1.0
  H   18    (CENTRE 18)   5.09673631 -4.27185201 -0.11262972  CHARGE =  1.0
  H   19    (CENTRE 19)  -7.74271178 -0.93880729 -1.68074939  CHARGE =  1.0
CENTRE ASSIGNMENTS    1  1  1  1  1  1  1  1  1  1  1  1  1  1  1  2  2  2  2  2
CENTRE ASSIGNMENTS    2  2  2  2  2  2  2  2  2  2  3  3  3  3  3  3  3  3  3  3
CENTRE ASSIGNMENTS    3  3  3  3  3  4  4  4  4  4  4  4  4  4  4  4  4  4  4  4
CENTRE ASSIGNMENTS    5  5  5  5  5  5  5  5  5  5  5  5  5  5  5  6  6  6  6  6
CENTRE ASSIGNMENTS    6  6  6  6  6  6  6  6  6  6  7  7  7  7  7  7  7  7  7  7
CENTRE ASSIGNMENTS    7  7  7  7  7  8  8  8  8  8  8  8  8  8  8  8  8  8  8  8
CENTRE ASSIGNMENTS    9  9  9  9  9  9  9  9  9  9  9  9  9  9  9 10 10 10 10 10
CENTRE ASSIGNMENTS   10 10 10 10 10 10 10 10 10 10 11 11 11 12 12 12 13 13 13 14
CENTRE ASSIGNMENTS   14 14 15 15 15 16 16 16 17 17 17 18 18 18 19 19 19
TYPE ASSIGNMENTS      1  1  1  1  1  1  2  2  2  3  3  3  4  4  4  1  1  1  1  1
TYPE ASSIGNMENTS      1  2  2  2  3  3  3  4  4  4  1  1  1  1  1  1  2  2  2  3
TYPE ASSIGNMENTS      3  3  4  4  4  1  1  1  1  1  1  2  2  2  3  3  3  4  4  4
TYPE ASSIGNMENTS      1  1  1  1  1  1  2  2  2  3  3  3  4  4  4  1  1  1  1  1
TYPE ASSIGNMENTS      1  2  2  2  3  3  3  4  4  4  1  1  1  1  1  1  2  2  2  3
TYPE ASSIGNMENTS      3  3  4  4  4  1  1  1  1  1  1  2  2  2  3  3  3  4  4  4
TYPE ASSIGNMENTS      1  1  1  1  1  1  2  2  2  3  3  3  4  4  4  1  1  1  1  1
TYPE ASSIGNMENTS      1  2  2  2  3  3  3  4  4  4  1  1  1  1  1  1  1  1  1  1
TYPE ASSIGNMENTS      1  1  1  1  1  1  1  1  1  1  1  1  1  1  1  1  1
EXPONENTS  0.1307093D+03 0.2380887D+02 0.6443608D+01 0.5033151D+01 0.1169596D+01
EXPONENTS  0.3803890D+00 0.5033151D+01 0.1169596D+01 0.3803890D+00 0.5033151D+01
EXPONENTS  0.1169596D+01 0.3803890D+00 0.5033151D+01 0.1169596D+01 0.3803890D+00
EXPONENTS  0.1307093D+03 0.2380887D+02 0.6443608D+01 0.5033151D+01 0.1169596D+01
EXPONENTS  0.3803890D+00 0.5033151D+01 0.1169596D+01 0.3803890D+00 0.5033151D+01
EXPONENTS  0.1169596D+01 0.3803890D+00 0.5033151D+01 0.1169596D+01 0.3803890D+00
EXPONENTS  0.1307093D+03 0.2380887D+02 0.6443608D+01 0.5033151D+01 0.1169596D+01
EXPONENTS  0.3803890D+00 0.5033151D+01 0.1169596D+01 0.3803890D+00 0.5033151D+01
EXPONENTS  0.1169596D+01 0.3803890D+00 0.5033151D+01 0.1169596D+01 0.3803890D+00
EXPONENTS  0.1307093D+03 0.2380887D+02 0.6443608D+01 0.5033151D+01 0.1169596D+01
EXPONENTS  0.3803890D+00 0.5033151D+01 0.1169596D+01 0.3803890D+00 0.5033151D+01
EXPONENTS  0.1169596D+01 0.3803890D+00 0.5033151D+01 0.1169596D+01 0.3803890D+00
EXPONENTS  0.9910617D+02 0.1805231D+02 0.4885660D+01 0.3780456D+01 0.8784966D+00
EXPONENTS  0.2857144D+00 0.3780456D+01 0.8784966D+00 0.2857144D+00 0.3780456D+01
EXPONENTS  0.8784966D+00 0.2857144D+00 0.3780456D+01 0.8784966D+00 0.2857144D+00
EXPONENTS  0.7161684D+02 0.1304510D+02 0.3530512D+01 0.2941249D+01 0.6834831D+00
EXPONENTS  0.2222899D+00 0.2941249D+01 0.6834831D+00 0.2222899D+00 0.2941249D+01
EXPONENTS  0.6834831D+00 0.2222899D+00 0.2941249D+01 0.6834831D+00 0.2222899D+00
EXPONENTS  0.7161684D+02 0.1304510D+02 0.3530512D+01 0.2941249D+01 0.6834831D+00
EXPONENTS  0.2222899D+00 0.2941249D+01 0.6834831D+00 0.2222899D+00 0.2941249D+01
EXPONENTS  0.6834831D+00 0.2222899D+00 0.2941249D+01 0.6834831D+00 0.2222899D+00
EXPONENTS  0.7161684D+02 0.1304510D+02 0.3530512D+01 0.2941249D+01 0.6834831D+00
EXPONENTS  0.2222899D+00 0.2941249D+01 0.6834831D+00 0.2222899D+00 0.2941249D+01
EXPONENTS  0.6834831D+00 0.2222899D+00 0.2941249D+01 0.6834831D+00 0.2222899D+00
EXPONENTS  0.7161684D+02 0.1304510D+02 0.3530512D+01 0.2941249D+01 0.6834831D+00
EXPONENTS  0.2222899D+00 0.2941249D+01 0.6834831D+00 0.2222899D+00 0.2941249D+01
EXPONENTS  0.6834831D+00 0.2222899D+00 0.2941249D+01 0.6834831D+00 0.2222899D+00
EXPONENTS  0.7161684D+02 0.1304510D+02 0.3530512D+01 0.2941249D+01 0.6834831D+00
EXPONENTS  0.2222899D+00 0.2941249D+01 0.6834831D+00 0.2222899D+00 0.2941249D+01
EXPONENTS  0.6834831D+00 0.2222899D+00 0.2941249D+01 0.6834831D+00 0.2222899D+00
EXPONENTS  0.3425251D+01 0.6239137D+00 0.1688554D+00 0.3425251D+01 0.6239137D+00
EXPONENTS  0.1688554D+00 0.3425251D+01 0.6239137D+00 0.1688554D+00 0.3425251D+01
EXPONENTS  0.6239137D+00 0.1688554D+00 0.3425251D+01 0.6239137D+00 0.1688554D+00
EXPONENTS  0.3425251D+01 0.6239137D+00 0.1688554D+00 0.3425251D+01 0.6239137D+00
EXPONENTS  0.1688554D+00 0.3425251D+01 0.6239137D+00 0.1688554D+00 0.3425251D+01
EXPONENTS  0.6239137D+00 0.1688554D+00
MO    1     MO 0.0        OCC NO =    2.0000000  ORB. ENERGY =  -19.440692
  0.42264774D+01  0.40876649D+01  0.12739466D+01 -0.63935216D-02  0.85518516D-02
  0.64542100D-02  0.16817748D-02  0.10575452D-02  0.16753292D-03  0.17221429D-02
  0.10829297D-02  0.17155426D-03 -0.66423349D-02 -0.41768784D-02 -0.66168771D-03
 -0.11704583D-04 -0.11320163D-04 -0.35280004D-05  0.95074536D-07 -0.12716987D-06
 -0.95977000D-07 -0.65455139D-06 -0.41159948D-06 -0.65204273D-07  0.19948880D-06
  0.12544391D-06  0.19872423D-07  0.22946470D-06  0.14429356D-06  0.22858524D-07
  0.34748400D-02  0.33607140D-02  0.10473878D-02 -0.47562467D-04  0.63618642D-04
  0.48013938D-04  0.31339324D-03  0.19707008D-03  0.31219211D-04 -0.98471564D-03
 -0.61921562D-03 -0.98094158D-04  0.11385258D-03  0.71593555D-04  0.11341622D-04
  0.47799296D-05  0.46229398D-05  0.14407684D-05 -0.62791427D-07  0.83988607D-07
  0.63387454D-07  0.48173345D-06  0.30292692D-06  0.47988714D-07 -0.93118234D-06
 -0.58555245D-06 -0.92761345D-07  0.62535842D-06  0.39324216D-06  0.62296164D-07
  0.63583235D-05  0.61494937D-05  0.19165286D-05 -0.25229251D-05  0.33746161D-05
  0.25468731D-05 -0.38527450D-04 -0.24227095D-04 -0.38379788D-05  0.51558829D-04
  0.32421575D-04  0.51361222D-05  0.89082292D-05  0.56017336D-05  0.88740872D-06
 -0.39035605D-04 -0.37753538D-04 -0.11766129D-04 -0.15304961D-04  0.20471621D-04
  0.15450238D-04 -0.66333818D-05 -0.41712485D-05 -0.66079584D-06 -0.69167963D-04
 -0.43494671D-04 -0.68902867D-05 -0.83290886D-05 -0.52375544D-05 -0.82971661D-06
 -0.57973414D-04 -0.56069362D-04 -0.17474371D-04 -0.44739414D-04  0.59842580D-04
  0.45164088D-04  0.86184388D-04  0.54195056D-04  0.85854074D-05 -0.23455346D-03
 -0.14749351D-03 -0.23365450D-04  0.11359942D-03  0.71434363D-04  0.11316403D-04
  0.45662326D-05  0.44162614D-05  0.13763558D-05  0.45450171D-05 -0.60793275D-05
 -0.45881592D-05  0.76657296D-06  0.48204165D-06  0.76363495D-07  0.75263186D-06
  0.47327511D-06  0.74974729D-07  0.12784901D-05  0.80394890D-06  0.12735901D-06
  0.14573190D-02  0.14094555D-02  0.43926571D-03  0.73506669D-03 -0.98321108D-03
 -0.74204407D-03 -0.43622956D-03 -0.27431285D-03 -0.43455765D-04  0.34222558D-02
  0.21520063D-02  0.34091395D-03 -0.22771840D-02 -0.14319544D-02 -0.22684564D-03
 -0.61725249D-06 -0.59697974D-06 -0.18605251D-06 -0.48550371D-06  0.64940044D-06
  0.49011220D-06  0.17413914D-05  0.10950336D-05  0.17347172D-06  0.74507733D-06
  0.46852462D-06  0.74222171D-07  0.10096246D-06  0.63487905D-07  0.10057551D-07
  0.27864544D-05  0.26949374D-05  0.83989429D-06 -0.49369385D-04 -0.47747920D-04
 -0.14880941D-04 -0.26734636D-04 -0.25856576D-04 -0.80583652D-05  0.14063070D-05
  0.13601189D-05  0.42388965D-06  0.11259371D-04  0.10889573D-04  0.33938043D-05
 -0.30114186D-04 -0.29125129D-04 -0.90770307D-05  0.32200785D-06  0.31143198D-06
  0.97059744D-07 -0.16134387D-02 -0.15604477D-02 -0.48632338D-03 -0.10202993D-07
 -0.98678911D-08 -0.30753906D-08
MO    2     MO 0.0        OCC NO =    2.0000000  ORB. ENERGY =  -19.416994
  0.12135336D-04  0.11736768D-04  0.36578381D-05  0.90475628D-07 -0.12101846D-06
 -0.91334439D-07  0.36311927D-06  0.22833914D-06  0.36172756D-07 -0.27009225D-06
 -0.16984125D-06 -0.26905708D-07  0.49818060D-06  0.31326933D-06  0.49627125D-07
  0.42265005D+01  0.40876873D+01  0.12739536D+01 -0.63787653D-02  0.85321139D-02
  0.64393136D-02 -0.20101902D-02 -0.12640616D-02 -0.20024859D-03 -0.15891543D-03
 -0.99930285D-04 -0.15830636D-04  0.67224835D-02  0.42272780D-02  0.66967186D-03
 -0.27186711D-05 -0.26293803D-05 -0.81946299D-06  0.11895692D-06 -0.15911449D-06
 -0.12008608D-06 -0.10734529D-06 -0.67501600D-07 -0.10693388D-07 -0.54975964D-07
 -0.34570361D-07 -0.54765261D-08 -0.10503063D-05 -0.66046077D-06 -0.10462808D-06
  0.42416423D-02  0.41023317D-02  0.12785176D-02 -0.59748347D-04  0.79918241D-04
  0.60315489D-04 -0.84242083D-03 -0.52973682D-03 -0.83919213D-04 -0.20416368D-03
 -0.12838360D-03 -0.20338120D-04 -0.60503601D-03 -0.38046288D-03 -0.60271713D-04
 -0.50154910D-06 -0.48507645D-06 -0.15117714D-06 -0.92882494D-07  0.12423784D-06
  0.93764151D-07 -0.38769053D-05 -0.24379021D-05 -0.38620465D-06 -0.21113907D-06
 -0.13276991D-06 -0.21032985D-07  0.14411818D-06  0.90625381D-07  0.14356583D-07
  0.25732651D-04  0.24887500D-04  0.77563466D-05  0.62131613D-05 -0.83106052D-05
 -0.62721377D-05  0.88319759D-04  0.55537834D-04  0.87981260D-05  0.21105570D-04
  0.13271749D-04  0.21024679D-05 -0.10462350D-04 -0.65790064D-05 -0.10422252D-05
  0.41293281D-05  0.39937063D-05  0.12446638D-05  0.32011178D-05 -0.42817536D-05
 -0.32315033D-05  0.10499294D-04  0.66022379D-05  0.10459054D-05  0.49828577D-05
  0.31333546D-05  0.49637602D-06 -0.69835237D-05 -0.43914271D-05 -0.69567583D-06
 -0.65846077D-04 -0.63683459D-04 -0.19847353D-04 -0.56750436D-04  0.75908293D-04
  0.57289121D-04 -0.18571865D-03 -0.11678487D-03 -0.18500685D-04 -0.68909877D-04
 -0.43332380D-04 -0.68645770D-05 -0.16453364D-03 -0.10346317D-03 -0.16390304D-04
 -0.14391469D-05 -0.13918802D-05 -0.43378827D-06 -0.53692324D-06  0.71817821D-06
  0.54201981D-06 -0.29132195D-05 -0.18319106D-05 -0.29020541D-06 -0.51582360D-06
 -0.32436372D-06 -0.51384663D-07 -0.89572837D-06 -0.56325804D-06 -0.89229536D-07
  0.14664502D-02  0.14182868D-02  0.44201806D-03  0.72944344D-03 -0.97568953D-03
 -0.73636745D-03  0.19624866D-02  0.12340642D-02  0.19549651D-03  0.55357214D-03
  0.34810101D-03  0.55145049D-04  0.35132705D-02  0.22092388D-02  0.34998054D-03
 -0.44929361D-05 -0.43453721D-05 -0.13542627D-05  0.14853485D-06  0.14365644D-06
  0.44771437D-07  0.84953442D-06  0.82163270D-06  0.25606703D-06 -0.12590621D-04
 -0.12177101D-04 -0.37950705D-05 -0.32911861D-04 -0.31830919D-04 -0.99203072D-05
  0.55370021D-06  0.53551474D-06  0.16689655D-06  0.11909198D-06  0.11518058D-06
  0.35896756D-07  0.36227980D-07  0.35038125D-07  0.10919853D-07 -0.16174668D-02
 -0.15643434D-02 -0.48753752D-03
MO    3     MO 0.0        OCC NO =    2.0000000  ORB. ENERGY =  -19.385932
 -0.37817631D-02 -0.36575566D-02 -0.11399006D-02 -0.56261605D-04  0.75254442D-04
  0.56795650D-04  0.34376746D-03  0.21617020D-03  0.34244992D-04 -0.19874955D-03
 -0.12497905D-03 -0.19798781D-04 -0.78596900D-03 -0.49423840D-03 -0.78295666D-04
  0.28731846D-05  0.27788190D-05  0.86603652D-06  0.20350997D-07 -0.27221103D-07
 -0.20544173D-07 -0.40897062D-06 -0.25717170D-06 -0.40740318D-07 -0.30451013D-06
 -0.19148414D-06 -0.30334305D-07  0.47180214D-06  0.29668185D-06  0.46999389D-07
  0.42267500D+01  0.40879286D+01  0.12740288D+01 -0.64136879D-02  0.85788258D-02
  0.64745678D-02 -0.28341883D-02 -0.17822137D-02 -0.28233259D-03 -0.93952006D-03
 -0.59079542D-03 -0.93591921D-04  0.91026841D-02  0.57240120D-02  0.90677967D-03
 -0.38334555D-05 -0.37075513D-05 -0.11554818D-05  0.62967777D-07 -0.84224489D-07
 -0.63565478D-07 -0.48141766D-06 -0.30272834D-06 -0.47957255D-07 -0.10636970D-05
 -0.66888120D-06 -0.10596202D-06  0.17288812D-06  0.10871669D-06  0.17222550D-07
 -0.90207422D-04 -0.87244692D-04 -0.27190360D-04 -0.48814417D-04  0.65293226D-04
  0.49277772D-04  0.78267763D-04  0.49216870D-04  0.77967791D-05 -0.47148343D-04
 -0.29648144D-04 -0.46967641D-05 -0.35907995D-03 -0.22579911D-03 -0.35770372D-04
 -0.11443561D-04 -0.11067714D-04 -0.34493231D-05 -0.39414347D-05  0.52719873D-05
  0.39788475D-05  0.19153909D-04  0.12044492D-04  0.19080499D-05 -0.26080765D-05
 -0.16400285D-05 -0.25980807D-06  0.34722228D-05  0.21834269D-05  0.34589150D-06
 -0.60029313D-04 -0.58057738D-04 -0.18094061D-04 -0.30318540D-04  0.40553497D-04
  0.30606329D-04  0.78120462D-04  0.49124243D-04  0.77821054D-05  0.16100130D-03
  0.10124194D-03  0.16038424D-04 -0.38482056D-03 -0.24198549D-03 -0.38334568D-04
 -0.12749985D-04 -0.12331231D-04 -0.38431060D-05 -0.20381391D-05  0.27261757D-05
  0.20574855D-05  0.36998019D-04  0.23265347D-04  0.36856219D-05 -0.95749885D-05
 -0.60210097D-05 -0.95382910D-06 -0.23424500D-05 -0.14729954D-05 -0.23334723D-06
  0.16418199D-02  0.15878968D-02  0.49487807D-03  0.11846398D-02 -0.15845515D-02
 -0.11958846D-02 -0.17177900D-02 -0.10801925D-02 -0.17112063D-03 -0.58081899D-03
 -0.36523457D-03 -0.57859292D-04  0.55436556D-02  0.34859994D-02  0.55224087D-03
 -0.18060061D-05 -0.17466905D-05 -0.54436713D-06 -0.12921512D-05  0.17283566D-05
  0.13044165D-05  0.49979319D-05  0.31428337D-05  0.49787766D-06  0.34835755D-05
  0.21905657D-05  0.34702242D-06 -0.10463178D-06 -0.65795270D-07 -0.10423076D-07
  0.20638315D-05  0.19960480D-05  0.62208098D-06 -0.89145219D-05 -0.86217375D-05
 -0.26870190D-05  0.83066702D-05  0.80338498D-05  0.25038001D-05  0.41148283D-05
  0.39796827D-05  0.12402933D-05  0.51316686D-05  0.49631265D-05  0.15467897D-05
 -0.20163648D-03 -0.19501403D-03 -0.60777354D-04  0.19726847D-05  0.19078947D-05
  0.59460746D-06 -0.31788489D-04 -0.30744442D-04 -0.95816998D-05  0.18154635D-07
  0.17558373D-07  0.54721778D-08
MO    4     MO 0.0        OCC NO =    2.0000000  ORB. ENERGY =  -19.367510
 -0.53744386D-05 -0.51979231D-05 -0.16199656D-05 -0.55225386D-07  0.73868415D-07
  0.55749595D-07 -0.82157791D-06 -0.51663024D-06 -0.81842910D-07  0.55345441D-07
  0.34802698D-07  0.55133321D-08  0.60226104D-06  0.37871790D-06  0.59995279D-07
 -0.45812771D-02 -0.44308117D-02 -0.13808905D-02 -0.65616711D-04  0.87767652D-04
  0.66239556D-04 -0.58969685D-03 -0.37081720D-03 -0.58743675D-04 -0.10528294D-03
 -0.66204736D-04 -0.10487942D-04  0.65032468D-03  0.40894161D-03  0.64783222D-04
  0.39269517D-05  0.37979767D-05  0.11836635D-05 -0.63345124D-08  0.84729221D-08
  0.63946407D-08  0.30863311D-06  0.19407678D-06  0.30745023D-07 -0.88523619D-07
 -0.55666027D-07 -0.88184339D-08  0.19367418D-06  0.12178752D-06  0.19293190D-07
  0.42267508D+01  0.40879293D+01  0.12740290D+01 -0.64205687D-02  0.85880293D-02
  0.64815138D-02  0.41511864D-02  0.26103774D-02  0.41352764D-03  0.60299891D-03
  0.37918190D-03  0.60068783D-04 -0.87055235D-02 -0.54742668D-02 -0.86721583D-03
  0.36414072D-06  0.35218105D-06  0.10975945D-06  0.15357371D-06 -0.20541724D-06
 -0.15503145D-06  0.79178349D-06  0.49789470D-06  0.78874886D-07  0.49501884D-06
  0.31128113D-06  0.49312161D-07  0.15262329D-05  0.95973622D-06  0.15203834D-06
 -0.82228426D-05 -0.79527753D-05 -0.24785327D-05  0.21085296D-05 -0.28203287D-05
 -0.21285442D-05  0.15299671D-04  0.96208437D-05  0.15241033D-05  0.52239795D-05
  0.32849785D-05  0.52039578D-06  0.88384616D-04  0.55578619D-04  0.88045870D-05
  0.19432031D-05  0.18793814D-05  0.58572109D-06  0.37901994D-06 -0.50696979D-06
 -0.38261766D-06  0.15656792D-05  0.98454111D-06  0.15596785D-06  0.14233247D-05
  0.89502478D-06  0.14178696D-06 -0.17592674D-05 -0.11062746D-05 -0.17525248D-06
 -0.50066600D-04 -0.48422236D-04 -0.15091096D-04 -0.16932946D-04  0.22649183D-04
  0.17093676D-04  0.17837317D-04  0.11216584D-04  0.17768953D-05  0.12314997D-04
  0.77440007D-05  0.12267798D-05  0.44345444D-03  0.27885605D-03  0.44175484D-04
 -0.52084919D-06 -0.50374266D-06 -0.15699458D-06 -0.19740351D-06  0.26404314D-06
  0.19927730D-06 -0.11271332D-05 -0.70877161D-06 -0.11228133D-06  0.16106017D-06
  0.10127896D-06  0.16044288D-07  0.71100242D-06  0.44709740D-06  0.70827740D-07
  0.16404123D-02  0.15865353D-02  0.49445377D-03  0.11917722D-02 -0.15940915D-02
 -0.12030847D-02  0.25984072D-02  0.16339481D-02  0.25884484D-03  0.38379784D-03
  0.24134238D-03  0.38232688D-04 -0.52726536D-02 -0.33155861D-02 -0.52524454D-03
 -0.30683625D-04 -0.29675866D-04 -0.92486713D-05 -0.12032328D-04 -0.11637144D-04
 -0.36267894D-05  0.45386223D-06  0.43895579D-06  0.13680335D-06  0.12289528D-04
  0.11885897D-04  0.37043148D-05  0.10964365D-04  0.10604256D-04  0.33048835D-05
  0.30776710D-06  0.29765894D-06  0.92767292D-07 -0.10638487D-06 -0.10289082D-06
 -0.32066573D-07  0.37296675D-07  0.36071720D-07  0.11241980D-07 -0.39036940D-04
 -0.37754829D-04 -0.11766531D-04
MO    5     MO 0.0        OCC NO =    2.0000000  ORB. ENERGY =  -14.542154
  0.25704489D-04  0.24860263D-04  0.77478581D-05  0.46810891D-05 -0.62613349D-05
 -0.47255228D-05  0.48570293D-04  0.30542304D-04  0.48384140D-05 -0.50813731D-04
 -0.31953037D-04 -0.50618980D-05 -0.66226326D-04 -0.41644891D-04 -0.65972504D-05
 -0.10486897D-05 -0.10142470D-05 -0.31609650D-06 -0.49944523D-06  0.66804834D-06
  0.50418605D-06  0.50102270D-06  0.31505652D-06  0.49910245D-07  0.11833344D-05
  0.74411245D-06  0.11787991D-06  0.16395993D-05  0.10310240D-05  0.16333153D-06
 -0.19665407D-03 -0.19019525D-03 -0.59275553D-04 -0.47574400D-04  0.63634603D-04
  0.48025984D-04 -0.12560251D-03 -0.78982227D-04 -0.12512112D-04  0.39083702D-03
  0.24576881D-03  0.38933908D-04 -0.15739297D-03 -0.98972921D-04 -0.15678974D-04
  0.66520132D-06  0.64335376D-06  0.20050527D-06  0.66913315D-06 -0.89501965D-06
 -0.67548468D-06  0.11062427D-05  0.69563508D-06  0.11020028D-06 -0.21804213D-05
 -0.13711074D-05 -0.21720645D-06  0.57136020D-05  0.35928662D-05  0.56917038D-06
  0.34310541D+01  0.33183662D+01  0.10341898D+01 -0.62862848D-02  0.84084138D-02
  0.63459553D-02  0.51985051D-02  0.32689595D-02  0.51785810D-03 -0.36529530D-02
 -0.22970749D-02 -0.36389526D-03 -0.84105913D-03 -0.52888055D-03 -0.83783565D-04
 -0.11345021D-04 -0.10972410D-04 -0.34196211D-05 -0.41755057D-04  0.55850762D-04
  0.42151403D-04  0.59063151D-04  0.37140494D-04  0.58836783D-05  0.85874089D-04
  0.53999932D-04  0.85544964D-05 -0.66361528D-04 -0.41729909D-04 -0.66107187D-05
  0.14825005D-02  0.14338099D-02  0.44685593D-03  0.87197178D-03 -0.11663327D-02
 -0.88024869D-03 -0.26048758D-03 -0.16380158D-03 -0.25948922D-04 -0.34244392D-02
 -0.21533793D-02 -0.34113145D-03  0.21716061D-02  0.13655642D-02  0.21632831D-03
 -0.26136313D-04 -0.25277904D-04 -0.78780187D-05 -0.17491491D-04  0.23396282D-04
  0.17657523D-04 -0.10193629D-04 -0.64100275D-05 -0.10154560D-05  0.35881007D-04
  0.22562940D-04  0.35743488D-05 -0.75915384D-04 -0.47737631D-04 -0.75624428D-05
 -0.63008622D-04 -0.60939196D-04 -0.18992086D-04 -0.70553818D-04  0.94371432D-04
  0.71223527D-04 -0.73518841D-04 -0.46230620D-04 -0.73237069D-05  0.28600952D-03
  0.17985046D-03  0.28491334D-04 -0.71838445D-04 -0.45173942D-04 -0.71563113D-05
 -0.14996752D-06 -0.14504205D-06 -0.45203272D-07  0.37704572D-06 -0.50432911D-06
 -0.38062470D-06 -0.55334976D-05 -0.34796118D-05 -0.55122897D-06  0.63968170D-05
  0.40224902D-05  0.63723003D-06  0.97173923D-05  0.61105570D-05  0.96801490D-06
 -0.17678949D-04 -0.17098310D-04 -0.53287964D-05 -0.27716194D-04 -0.26805896D-04
 -0.83542269D-05  0.12369062D-03  0.11962818D-03  0.37282880D-04 -0.80556564D-04
 -0.77910802D-04 -0.24281394D-04  0.10618062D-04  0.10269328D-04  0.32005009D-05
 -0.19610262D-02 -0.18966191D-02 -0.59109334D-03 -0.19677951D-02 -0.19031657D-02
 -0.59313363D-03 -0.13861768D-05 -0.13406499D-05 -0.41782200D-06 -0.48665087D-07
 -0.47066754D-07 -0.14668651D-07
MO    6     MO 0.0        OCC NO =    2.0000000  ORB. ENERGY =  -10.490495
  0.21379511D-02  0.20677332D-02  0.64442212D-03  0.11748398D-02 -0.15714431D-02
 -0.11859916D-02  0.90288909D-03  0.56776089D-03  0.89942864D-04 -0.49211979D-02
 -0.30945813D-02 -0.49023367D-03  0.25186246D-02  0.15837788D-02  0.25089716D-03
 -0.33107145D-05 -0.32019789D-05 -0.99791698D-06 -0.11923299D-05  0.15948375D-05
  0.12036477D-05  0.83770251D-05  0.52676982D-05  0.83449189D-06 -0.56241163D-06
 -0.35365952D-06 -0.56025610D-07 -0.25045769D-05 -0.15749452D-05 -0.24949777D-06
  0.16838334D-02  0.16285304D-02  0.50754179D-03  0.16222936D-02 -0.21699488D-02
 -0.16376927D-02  0.12587251D-02  0.79152013D-03  0.12539009D-03  0.64048375D-03
  0.40275337D-03  0.63802900D-04 -0.42440928D-02 -0.26687994D-02 -0.42278267D-03
 -0.11305514D-05 -0.10934201D-05 -0.34077129D-06 -0.12961216D-06  0.17336673D-06
  0.13084246D-06  0.51109258D-05  0.32138873D-05  0.50913374D-06  0.58427073D-05
  0.36740511D-05  0.58203142D-06  0.55432146D-05  0.34857221D-05  0.55219694D-06
 -0.11422876D-03 -0.11047709D-03 -0.34430882D-04 -0.10928415D-03  0.14617638D-03
  0.11032149D-03 -0.10506893D-04 -0.66070162D-05 -0.10466624D-05 -0.12151933D-03
 -0.76414615D-04 -0.12105359D-04 -0.14739383D-03 -0.92685196D-04 -0.14682892D-04
 -0.10630637D-02 -0.10281489D-02 -0.32042911D-03 -0.18591067D-04  0.24867054D-04
  0.18767537D-04 -0.87856607D-04 -0.55246592D-04 -0.87519884D-05  0.17469427D-03
  0.10985244D-03  0.17402473D-04  0.18229469D-03  0.11463179D-03  0.18159601D-04
 -0.14814342D-01 -0.14327786D-01 -0.44653452D-02  0.97338252D-03 -0.13019778D-02
 -0.98262203D-03 -0.18746842D-02 -0.11788517D-02 -0.18674992D-03  0.27784279D-02
  0.17471500D-02  0.27677792D-03  0.22118629D-02  0.13908787D-02  0.22033856D-03
  0.86756012D-04  0.83906638D-04  0.26150034D-04 -0.38318749D-04  0.51254422D-04
  0.38682477D-04 -0.77972231D-04 -0.49031031D-04 -0.77673391D-05 -0.80246882D-04
 -0.50461393D-04 -0.79939324D-05 -0.83424130D-04 -0.52459331D-04 -0.83104395D-05
  0.26861438D+01  0.25979213D+01  0.80965861D+00 -0.55333152D-02  0.74012561D-02
  0.55858384D-02  0.14272998D-03  0.89752440D-04  0.14218294D-04  0.21739430D-04
  0.13670337D-04  0.21656110D-05 -0.72853833D-03 -0.45812445D-03 -0.72574610D-04
 -0.21799709D-03 -0.21083729D-03 -0.65708775D-04  0.62359377D-05 -0.83410705D-05
 -0.62951303D-05 -0.25285505D-04 -0.15900204D-04 -0.25188595D-05 -0.21902178D-04
 -0.13772677D-04 -0.21818235D-05  0.90571107D-05  0.56953542D-05  0.90223980D-06
 -0.51567175D-04 -0.49873527D-04 -0.15543400D-04 -0.55112409D-04 -0.53302323D-04
 -0.16612006D-04 -0.21468182D-04 -0.20763091D-04 -0.64709486D-05  0.22425089D-05
  0.21688570D-05  0.67593800D-06 -0.16875063D-03 -0.16320826D-03 -0.50864887D-04
 -0.24963974D-03 -0.24144068D-03 -0.75246515D-04 -0.27666486D-04 -0.26757821D-04
 -0.83392440D-05 -0.44275558D-03 -0.42821392D-03 -0.13345558D-03  0.10024626D-06
  0.96953822D-07  0.30216271D-07
MO    7     MO 0.0        OCC NO =    2.0000000  ORB. ENERGY =  -10.478059
 -0.74792546D-06 -0.72336094D-06 -0.22544001D-06  0.73923937D-07 -0.98879238D-07
 -0.74625636D-07 -0.49875973D-05 -0.31363350D-05 -0.49684816D-06 -0.14137173D-05
 -0.88898341D-06 -0.14082991D-06  0.22437364D-05  0.14109216D-05  0.22351369D-06
  0.21741255D-02  0.21027195D-02  0.65532582D-03  0.11723486D-02 -0.15681109D-02
 -0.11834767D-02 -0.33098744D-02 -0.20813379D-02 -0.32971889D-03 -0.87386806D-03
 -0.54951169D-03 -0.87051884D-04 -0.45020435D-02 -0.28310058D-02 -0.44847888D-03
 -0.20963792D-05 -0.20275267D-05 -0.63189152D-06 -0.10578031D-05  0.14148971D-05
  0.10678440D-05 -0.88614517D-06 -0.55723186D-06 -0.88274889D-07  0.32967328D-06
  0.20730741D-06  0.32840976D-07  0.55353986D-05  0.34808072D-05  0.55141834D-06
  0.16520255D-02  0.15977672D-02  0.49795424D-03  0.16111358D-02 -0.21550244D-02
 -0.16264290D-02 -0.18131604D-02 -0.11401639D-02 -0.18062112D-03 -0.26002701D-03
 -0.16351196D-03 -0.25903042D-04  0.39194283D-02  0.24646417D-02  0.39044065D-03
 -0.19905095D-05 -0.19251341D-05 -0.59998023D-06 -0.25278707D-05  0.33812313D-05
  0.25518657D-05  0.92962123D-05  0.58457077D-05  0.92605832D-06 -0.76510905D-06
 -0.48112110D-06 -0.76217665D-07  0.68564496D-05  0.43115195D-05  0.68301713D-06
 -0.84889757D-03 -0.82101677D-03 -0.25587507D-03 -0.39417733D-04  0.52724402D-04
  0.39791893D-04  0.18085901D-03  0.11372900D-03  0.18016584D-04  0.62503276D-04
  0.39303737D-04  0.62263723D-05 -0.57552191D-04 -0.36190362D-04 -0.57331614D-05
 -0.59391762D-03 -0.57441126D-03 -0.17901890D-03  0.23364493D-04 -0.31251896D-04
 -0.23586272D-04  0.89639871D-04  0.56367956D-04  0.89296313D-05  0.24896688D-04
  0.15655705D-04  0.24801268D-05  0.29187020D-04  0.18353582D-04  0.29075157D-05
 -0.10059705D-01 -0.97293092D-02 -0.30322007D-02  0.96809967D-03 -0.12949115D-02
 -0.97728904D-03  0.38962624D-02  0.24500743D-02  0.38813294D-03  0.83933006D-03
  0.52779326D-03  0.83611320D-04 -0.96489524D-03 -0.60675202D-03 -0.96119714D-04
  0.22378813D-03  0.21643814D-03  0.67454314D-04 -0.91655124D-06  0.12259613D-05
  0.92525130D-06  0.18681163D-05  0.11747216D-05  0.18609564D-06  0.11509279D-05
  0.72373438D-06  0.11465168D-06  0.11277515D-04  0.70916041D-05  0.11234292D-05
  0.26862169D+01  0.25979921D+01  0.80968065D+00 -0.55261909D-02  0.73917268D-02
  0.55786465D-02 -0.29809819D-03 -0.18745214D-03 -0.29695569D-04 -0.44462374D-04
 -0.27959134D-04 -0.44291965D-05  0.43146494D-03  0.27131673D-03  0.42981128D-04
 -0.64546439D-04 -0.62426505D-04 -0.19455615D-04 -0.49752341D-04 -0.48118298D-04
 -0.14996372D-04  0.53202441D-07  0.51455085D-07  0.16036303D-07 -0.39669624D-04
 -0.38366733D-04 -0.11957235D-04 -0.32442438D-04 -0.31376914D-04 -0.97788136D-05
 -0.37097837D-05 -0.35879413D-05 -0.11182046D-05 -0.13372579D-05 -0.12933376D-05
 -0.40307684D-06  0.27718896D-06  0.26808510D-06  0.83550415D-07 -0.44039721D-03
 -0.42593301D-03 -0.13274471D-03
MO    8     MO 0.0        OCC NO =    2.0000000  ORB. ENERGY =  -10.428837
 -0.48778197D-04 -0.47176149D-04 -0.14702745D-04 -0.56179526D-04  0.75144655D-04
  0.56712792D-04 -0.16896220D-04 -0.10624797D-04 -0.16831463D-05  0.17594634D-03
  0.11063978D-03  0.17527201D-04 -0.39705936D-04 -0.24968158D-04 -0.39553757D-05
  0.56670470D-05  0.54809212D-05  0.17081637D-05  0.25281203D-05 -0.33815652D-05
 -0.25521177D-05 -0.26314523D-05 -0.16547278D-05 -0.26213669D-06 -0.32971144D-05
 -0.20733140D-05 -0.32844777D-06 -0.15178774D-04 -0.95448204D-05 -0.15120599D-05
 -0.95199948D-04 -0.92073246D-04 -0.28695209D-04 -0.45024507D-04  0.60223915D-04
  0.45451887D-04 -0.21254157D-03 -0.13365184D-03 -0.21172697D-04  0.43661367D-03
  0.27455439D-03  0.43494028D-04  0.17418912D-03  0.10953479D-03  0.17352152D-04
  0.46689495D-05  0.45156047D-05  0.14073167D-05 -0.18765843D-05  0.25100830D-05
  0.18943971D-05 -0.11880927D-04 -0.74710455D-05 -0.11835391D-05 -0.25229424D-05
 -0.15864939D-05 -0.25132728D-06 -0.32111583D-04 -0.20192625D-04 -0.31988510D-05
  0.22593022D-02  0.21850988D-02  0.68099984D-03  0.10639943D-02 -0.14231784D-02
 -0.10740940D-02  0.35978515D-03  0.22624256D-03  0.35840622D-04  0.42949316D-02
  0.27007682D-02  0.42784706D-03 -0.28581658D-02 -0.17972913D-02 -0.28472114D-03
 -0.25452614D-01 -0.24616660D-01 -0.76719376D-02  0.10831772D-02 -0.14488370D-02
 -0.10934589D-02 -0.40476605D-02 -0.25452775D-02 -0.40321472D-03 -0.11797766D-02
 -0.74187520D-03 -0.11752550D-03  0.79357762D-03  0.49902290D-03  0.79053612D-04
  0.26841696D+01  0.25960120D+01  0.80906354D+00 -0.63312603D-02  0.84685722D-02
  0.63913577D-02  0.19396828D-03  0.12197246D-03  0.19322487D-04 -0.29082218D-03
 -0.18287679D-03 -0.28970756D-04  0.26756434D-03  0.16825164D-03  0.26653886D-04
 -0.20787968D-02 -0.20105217D-02 -0.62659180D-03 -0.25331208D-04  0.33882537D-04
  0.25571656D-04 -0.89702994D-04 -0.56407650D-04 -0.89359194D-05 -0.19979959D-04
 -0.12563935D-04 -0.19903383D-05  0.11124793D-03  0.69955685D-04  0.11082156D-04
  0.18343982D-01  0.17741501D-01  0.55292508D-02  0.10021168D-02 -0.13404122D-02
 -0.10116291D-02  0.19918548D-02  0.12525318D-02  0.19842207D-03 -0.31838098D-02
 -0.20020651D-02 -0.31716074D-03 -0.22219611D-02 -0.13972288D-02 -0.22134451D-03
  0.66126759D-03  0.63954923D-03  0.19931956D-03  0.17504841D-04 -0.23414139D-04
 -0.17671000D-04 -0.78115691D-04 -0.49121243D-04 -0.77816302D-05 -0.70778343D-05
 -0.44507322D-05 -0.70507075D-06 -0.48969745D-04 -0.30793490D-04 -0.48782061D-05
  0.44380180D-04  0.42922578D-04  0.13377093D-04  0.44132370D-04  0.42682907D-04
  0.13302398D-04 -0.22681012D-02 -0.21936088D-02 -0.68365204D-03 -0.21004091D-04
 -0.20314242D-04 -0.63310619D-05 -0.48935799D-05 -0.47328574D-05 -0.14750249D-05
 -0.13199067D-03 -0.12765563D-03 -0.39784683D-04 -0.11835489D-03 -0.11446770D-03
 -0.35674582D-04 -0.36726886D-04 -0.35520645D-04 -0.11070234D-04 -0.50597976D-06
 -0.48936160D-06 -0.15251263D-06
MO    9     MO 0.0        OCC NO =    2.0000000  ORB. ENERGY =  -10.394494
  0.16347401D-04  0.15810495D-04  0.49274406D-05  0.81732743D-05 -0.10932415D-04
 -0.82508564D-05 -0.12430410D-04 -0.78165756D-05 -0.12382769D-05 -0.31707431D-04
 -0.19938484D-04 -0.31585908D-05  0.51621592D-05  0.32461042D-05  0.51423745D-06
 -0.66544825D-04 -0.64359258D-04 -0.20057970D-04 -0.70277589D-04  0.94001953D-04
  0.70944676D-04  0.12018410D-03  0.75574986D-04  0.11972348D-04  0.18241257D-04
  0.11470592D-04  0.18171345D-05  0.17561563D-03  0.11043182D-03  0.17494256D-04