 opt glycine b3lyp
GAUSSIAN             20 MOL ORBITALS     90 PRIMITIVES       10 NUCLEI
  O    1    (CENTRE  1)   3.24313196 -1.31290695 -0.00632740  CHARGE =  8.0
  O    2    (CENTRE  2)   1.09935491  2.58339273  0.00376927  CHARGE =  8.0
  N    3    (CENTRE  3)  -3.85318614  0.03097056 -0.00604976  CHARGE =  7.0
  C    4    (CENTRE  4)  -1.42266045 -1.47768419  0.00971192  CHARGE =  6.0
  C    5    (CENTRE  5)   1.03299974  0.21815189  0.00230099  CHARGE =  6.0
  H    6    (CENTRE  6)  -1.38777264 -2.72360352 -1.67098939  CHARGE =  1.0
  H    7    (CENTRE  7)  -1.39451364 -2.69700782  1.71010639  CHARGE =  1.0
  H    8    (CENTRE  8)  -3.65508060  1.27209613 -1.57311194  CHARGE =  1.0
  H    9    (CENTRE  9)  -3.65381323  1.30543011  1.53392807  CHARGE =  1.0
  H   10    (CENTRE 10)   4.66155240  0.01959866 -0.00919721  CHARGE =  1.0
CENTRE ASSIGNMENTS    1  1  1  1  1  1  1  1  1  1  1  1  1  1  1  2  2  2  2  2
CENTRE ASSIGNMENTS    2  2  2  2  2  2  2  2  2  2  3  3  3  3  3  3  3  3  3  3
CENTRE ASSIGNMENTS    3  3  3  3  3  4  4  4  4  4  4  4  4  4  4  4  4  4  4  4
CENTRE ASSIGNMENTS    5  5  5  5  5  5  5  5  5  5  5  5  5  5  5  6  6  6  7  7
CENTRE ASSIGNMENTS    7  8  8  8  9  9  9 10 10 10
TYPE ASSIGNMENTS      1  1  1  1  1  1  2  2  2  3  3  3  4  4  4  1  1  1  1  1
TYPE ASSIGNMENTS      1  2  2  2  3  3  3  4  4  4  1  1  1  1  1  1  2  2  2  3
TYPE ASSIGNMENTS      3  3  4  4  4  1  1  1  1  1  1  2  2  2  3  3  3  4  4  4
TYPE ASSIGNMENTS      1  1  1  1  1  1  2  2  2  3  3  3  4  4  4  1  1  1  1  1
TYPE ASSIGNMENTS      1  1  1  1  1  1  1  1  1  1
EXPONENTS  0.1307093D+03 0.2380887D+02 0.6443608D+01 0.5033151D+01 0.1169596D+01
EXPONENTS  0.3803890D+00 0.5033151D+01 0.1169596D+01 0.3803890D+00 0.5033151D+01
EXPONENTS  0.1169596D+01 0.3803890D+00 0.5033151D+01 0.1169596D+01 0.3803890D+00
EXPONENTS  0.1307093D+03 0.2380887D+02 0.6443608D+01 0.5033151D+01 0.1169596D+01
EXPONENTS  0.3803890D+00 0.5033151D+01 0.1169596D+01 0.3803890D+00 0.5033151D+01
EXPONENTS  0.1169596D+01 0.3803890D+00 0.5033151D+01 0.1169596D+01 0.3803890D+00
EXPONENTS  0.9910617D+02 0.1805231D+02 0.4885660D+01 0.3780456D+01 0.8784966D+00
EXPONENTS  0.2857144D+00 0.3780456D+01 0.8784966D+00 0.2857144D+00 0.3780456D+01
EXPONENTS  0.8784966D+00 0.2857144D+00 0.3780456D+01 0.8784966D+00 0.2857144D+00
EXPONENTS  0.7161684D+02 0.1304510D+02 0.3530512D+01 0.2941249D+01 0.6834831D+00
EXPONENTS  0.2222899D+00 0.2941249D+01 0.6834831D+00 0.2222899D+00 0.2941249D+01
EXPONENTS  0.6834831D+00 0.2222899D+00 0.2941249D+01 0.6834831D+00 0.2222899D+00
EXPONENTS  0.7161684D+02 0.1304510D+02 0.3530512D+01 0.2941249D+01 0.6834831D+00
EXPONENTS  0.2222899D+00 0.2941249D+01 0.6834831D+00 0.2222899D+00 0.2941249D+01
EXPONENTS  0.6834831D+00 0.2222899D+00 0.2941249D+01 0.6834831D+00 0.2222899D+00
EXPONENTS  0.3425251D+01 0.6239137D+00 0.1688554D+00 0.3425251D+01 0.6239137D+00
EXPONENTS  0.1688554D+00 0.3425251D+01 0.6239137D+00 0.1688554D+00 0.3425251D+01
EXPONENTS  0.6239137D+00 0.1688554D+00 0.3425251D+01 0.6239137D+00 0.1688554D+00
MO    1     MO 0.0        OCC NO =    2.0000000  ORB. ENERGY =  -18.938775
  0.42244476D+01  0.40857019D+01  0.12733348D+01 -0.68519699D-02  0.91650633D-02
  0.69170100D-02 -0.84175014D-03 -0.52931508D-03 -0.83852402D-04  0.70034659D-02
  0.44039673D-02  0.69766241D-03  0.10674844D-04  0.67126281D-05  0.10633931D-05
  0.40343732D-02  0.39018701D-02  0.12160425D-02 -0.49514895D-04  0.66230172D-04
  0.49984899D-04  0.11227538D-02  0.70601771D-03  0.11184507D-03 -0.16429006D-03
 -0.10331000D-03 -0.16366039D-04 -0.38656731D-05 -0.24308390D-05 -0.38508574D-06
  0.61566563D-05  0.59544500D-05  0.18557420D-05 -0.23311652D-05  0.31181218D-05
  0.23532930D-05 -0.60703654D-04 -0.38172087D-04 -0.60470999D-05 -0.36309544D-04
 -0.22832416D-04 -0.36170383D-05  0.74226248D-06  0.46675457D-06  0.73941766D-07
 -0.70041841D-04 -0.67741419D-04 -0.21112041D-04 -0.55575712D-04  0.74337004D-04
  0.56103246D-04  0.27200562D-03  0.17104443D-03  0.27096312D-04 -0.90113631D-04
 -0.56665869D-04 -0.89768258D-05 -0.24792836D-05 -0.15590401D-05 -0.24697814D-06
  0.16016915D-02  0.15490863D-02  0.48278252D-03  0.76886332D-03 -0.10284168D-02
 -0.77616151D-03 -0.35155574D-02 -0.22106768D-02 -0.35020835D-03  0.26378113D-02
  0.16587265D-02  0.26277015D-03  0.13977778D-04  0.87896016D-05  0.13924206D-05
 -0.23394450D-04 -0.22626093D-04 -0.70515650D-05 -0.21915333D-04 -0.21195556D-04
 -0.66057291D-05 -0.11260284D-04 -0.10890457D-04 -0.33940796D-05 -0.11837145D-04
 -0.11448372D-04 -0.35679574D-05 -0.17562146D-02 -0.16985343D-02 -0.52935894D-03
MO    2     MO 0.0        OCC NO =    2.0000000  ORB. ENERGY =  -18.877913
 -0.43675261D-02 -0.42240811D-02 -0.13164616D-02 -0.58779327D-04  0.78622098D-04
  0.59337270D-04  0.32664667D-03  0.20540419D-03  0.32539475D-04  0.88607911D-03
  0.55719032D-03  0.88268308D-04 -0.44202437D-06 -0.27795679D-06 -0.44033025D-07
  0.42246661D+01  0.40859131D+01  0.12734007D+01 -0.68992150D-02  0.92282574D-02
  0.69647035D-02 -0.23547280D-03 -0.14807161D-03 -0.23457031D-04 -0.97644576D-02
 -0.61401529D-02 -0.97270339D-03 -0.61412954D-05 -0.38618113D-05 -0.61177580D-06
 -0.21400827D-04 -0.20697948D-04 -0.64506463D-05 -0.47812830D-05  0.63953523D-05
  0.48266678D-05 -0.41680951D-04 -0.26210100D-04 -0.41521203D-05  0.14626139D-03
  0.91973087D-04  0.14570082D-04  0.65466587D-06  0.41167147D-06  0.65215677D-07
 -0.56188533D-04 -0.54343103D-04 -0.16936372D-04 -0.19671627D-04  0.26312390D-04
  0.19858353D-04 -0.18928039D-03 -0.11902459D-03 -0.18855495D-04  0.42150595D-03
  0.26505425D-03  0.41989047D-04  0.48389353D-06  0.30428524D-06  0.48203894D-07
  0.18416455D-02  0.17811594D-02  0.55510958D-03  0.12633088D-02 -0.16897775D-02
 -0.12753003D-02 -0.20415776D-03 -0.12837988D-03 -0.20337529D-04 -0.63490573D-02
 -0.39924576D-02 -0.63247236D-03 -0.37978548D-05 -0.23881930D-05 -0.37832990D-06
  0.11060210D-04  0.10696953D-04  0.33337731D-05  0.11152931D-04  0.10786629D-04
  0.33617211D-05 -0.31532045D-04 -0.30496421D-04 -0.95044024D-05 -0.33625923D-04
 -0.32521529D-04 -0.10135540D-04 -0.35956448D-04 -0.34775511D-04 -0.10838008D-04
MO    3     MO 0.0        OCC NO =    2.0000000  ORB. ENERGY =  -14.118868
  0.26528936D-04  0.25657632D-04  0.79963632D-05  0.27223571D-05 -0.36413726D-05
 -0.27481982D-05  0.70334260D-04  0.44228070D-04  0.70064694D-05  0.92716095D-04
  0.58302369D-04  0.92360747D-05 -0.22971532D-06 -0.14445116D-06 -0.22883490D-07
 -0.58741016D-04 -0.56811753D-04 -0.17705742D-04 -0.86998745D-06  0.11636785D-05
  0.87824552D-06 -0.15641400D-03 -0.98357323D-04 -0.15581452D-04  0.13212060D-03
  0.83080977D-04  0.13161423D-04  0.16416112D-05  0.10322892D-05  0.16353195D-06
  0.34289826D+01  0.33163627D+01  0.10335654D+01 -0.68023752D-02  0.90987264D-02
  0.68669445D-02  0.53278259D-02  0.33502799D-02  0.53074063D-03  0.39439717D-02
  0.24800753D-02  0.39288559D-03 -0.44052125D-04 -0.27701158D-04 -0.43883289D-05
  0.15826985D-02  0.15307171D-02  0.47705766D-03  0.93577441D-03 -0.12516739D-02
 -0.94465694D-03  0.37735995D-02  0.23729406D-02  0.37591366D-03 -0.23994252D-02
 -0.15088230D-02 -0.23902291D-03  0.25462561D-04  0.16011542D-04  0.25364973D-05
 -0.78776135D-04 -0.76188848D-04 -0.23744736D-04 -0.64729320D-04  0.86580694D-04
  0.65343741D-04 -0.32329583D-03 -0.20329710D-03 -0.32205676D-04  0.14598689D-03
  0.91800471D-04  0.14542737D-04 -0.13429464D-05 -0.84448076D-06 -0.13377994D-06
  0.90451535D-04  0.87480787D-04  0.27263940D-04  0.90018658D-04  0.87062127D-04
  0.27133462D-04 -0.21526628D-02 -0.20819618D-02 -0.64885655D-03 -0.21525968D-02
 -0.20818979D-02 -0.64883664D-03 -0.21370542D-05 -0.20668658D-05 -0.64415178D-06
MO    4     MO 0.0        OCC NO =    2.0000000  ORB. ENERGY =  -10.103995
  0.26306765D-02  0.25442758D-02  0.79293963D-03  0.12866931D-02 -0.17210560D-02
 -0.12989066D-02  0.56394825D-02  0.35462580D-02  0.56178684D-03 -0.32076587D-02
 -0.20170618D-02 -0.31953648D-03 -0.20999656D-04 -0.13205147D-04 -0.20919172D-05
  0.23320122D-02  0.22554207D-02  0.70291612D-03  0.18050721D-02 -0.24144298D-02
 -0.18222062D-02  0.74173440D-04  0.46642249D-04  0.73889159D-05  0.53480001D-02
  0.33629660D-02  0.53275032D-03  0.35994941D-05  0.22634585D-05  0.35856985D-06
 -0.16317403D-03 -0.15781482D-03 -0.49183985D-04 -0.11053201D-03  0.14784549D-03
  0.11158120D-03  0.18518795D-03  0.11645115D-03  0.18447819D-04  0.77909674D-04
  0.48991694D-04  0.77611074D-05  0.79452964D-06  0.49962156D-06  0.79148449D-07
 -0.26744210D-01 -0.25865836D-01 -0.80612512D-02  0.10979322D-02 -0.14685730D-02
 -0.11083539D-02 -0.36047166D-02 -0.22667425D-02 -0.35909010D-03 -0.27667099D-02
 -0.17397814D-02 -0.27561061D-03  0.12509386D-04  0.78662373D-05  0.12461442D-05
  0.26839584D+01  0.25958077D+01  0.80899987D+00 -0.60339525D-02  0.80708990D-02
  0.60912279D-02  0.13162783D-04  0.82771115D-05  0.13112335D-05  0.65019300D-03
  0.40885881D-03  0.64770105D-04  0.49604320D-06  0.31192527D-06  0.49414204D-07
 -0.15328706D-04 -0.14825257D-04 -0.46203850D-05 -0.16116363D-04 -0.15587044D-04
 -0.48578009D-05 -0.11015165D-03 -0.10653388D-03 -0.33201957D-04 -0.11135184D-03
 -0.10769465D-03 -0.33563719D-04 -0.47113592D-03 -0.45566216D-03 -0.14200999D-03
MO    5     MO 0.0        OCC NO =    2.0000000  ORB. ENERGY =  -10.055332
 -0.63337740D-04 -0.61257504D-04 -0.19091288D-04 -0.62566156D-04  0.83687288D-04
  0.63160044D-04 -0.17487533D-03 -0.10996630D-03 -0.17420509D-04  0.64524838D-04
  0.40574950D-04  0.64277538D-05 -0.62049332D-06 -0.39018285D-06 -0.61811519D-07
 -0.86808287D-04 -0.83957195D-04 -0.26165791D-04 -0.25522043D-04  0.34137794D-04
  0.25764303D-04 -0.59481071D-03 -0.37403294D-03 -0.59253102D-04 -0.12745911D-03
 -0.80149710D-04 -0.12697061D-04  0.17479090D-05  0.10991321D-05  0.17412099D-06
  0.26571872D-02  0.25699158D-02  0.80093049D-03  0.11509480D-02 -0.15394860D-02
 -0.11618730D-02 -0.48362833D-02 -0.30411847D-02 -0.48177476D-03  0.32790791D-02
  0.20619729D-02  0.32665116D-03 -0.34102397D-04 -0.21444502D-04 -0.33971694D-05
  0.26819083D+01  0.25938249D+01  0.80838194D+00 -0.69952860D-02  0.93567601D-02
  0.70616864D-02  0.23198718D-03  0.14587976D-03  0.23109805D-04 -0.76385973D-03
 -0.48033550D-03 -0.76093213D-04  0.85727944D-05  0.53908032D-05  0.85399379D-06
  0.30843542D-01  0.29830531D-01  0.92968736D-02  0.10438924D-02 -0.13962904D-02
 -0.10538012D-02  0.40153504D-02  0.25249601D-02  0.39999610D-03  0.26875646D-02
  0.16900127D-02  0.26772641D-03 -0.11064479D-04 -0.69576415D-05 -0.11022073D-05
 -0.25376550D-02 -0.24543095D-02 -0.76490105D-03 -0.25376200D-02 -0.24542756D-02
 -0.76489051D-03 -0.14892803D-03 -0.14403671D-03 -0.44889950D-04 -0.14908488D-03
 -0.14418840D-03 -0.44937227D-04 -0.45184812D-04 -0.43700783D-04 -0.13619625D-04
MO    6     MO 0.0        OCC NO =    2.0000000  ORB. ENERGY =   -1.020470
 -0.68882218D+00 -0.66619883D+00 -0.20762508D+00 -0.13704664D+00  0.18331095D+00
  0.13834751D+00 -0.49017169D-01 -0.30823311D-01 -0.48829304D-02  0.21562167D+00
  0.13558869D+00  0.21479527D-01  0.39340080D-03  0.24738098D-03  0.39189304D-04
 -0.55743350D+00 -0.53912542D+00 -0.16802184D+00 -0.10686594D+00  0.14294183D+00
  0.10788033D+00  0.85689087D-02  0.53883598D-02  0.85360672D-03 -0.22874587D+00
 -0.14384154D+00 -0.22786917D-01 -0.20251007D-03 -0.12734377D-03 -0.20173392D-04
 -0.27418813D-01 -0.26518282D-01 -0.82645902D-02 -0.47224139D-02  0.63166101D-02
  0.47672399D-02  0.11322848D-01  0.71201108D-02  0.11279452D-02  0.25261174D-02
  0.15884904D-02  0.25164357D-03 -0.11620793D-04 -0.73074665D-05 -0.11576255D-05
 -0.55753212D-01 -0.53922079D-01 -0.16805157D-01 -0.82797198D-02  0.11074794D-01
  0.83583123D-02  0.18232661D-01  0.11465186D-01  0.18162781D-02  0.11598187D-01
  0.72932513D-02  0.11553735D-02 -0.63149644D-04 -0.39710191D-04 -0.62907614D-05
 -0.34810971D+00 -0.33667656D+00 -0.10492738D+00 -0.49423531D-01  0.66107966D-01
  0.49892668D-01  0.60999334D-01  0.38358018D-01  0.60765545D-02  0.47931087D-01
  0.30140354D-01  0.47747384D-02 -0.18042929D-03 -0.11345878D-03 -0.17973777D-04
  0.18930051D-02  0.18308321D-02  0.57059040D-03  0.18802860D-02  0.18185307D-02
  0.56675660D-03  0.14106747D-02  0.13643431D-02  0.42520616D-03  0.14280297D-02
  0.13811282D-02  0.43043733D-03  0.27460945D-01  0.26559030D-01  0.82772896D-02
MO    7     MO 0.0        OCC NO =    2.0000000  ORB. ENERGY =   -0.941200
  0.68136221D+00  0.65898387D+00  0.20537649D+00  0.13941793D+00 -0.18648274D+00
 -0.14074131D+00 -0.10320286D-01 -0.64896730D-02 -0.10280732D-02 -0.16563728D+00
 -0.10415716D+00 -0.16500245D-01 -0.16382323D-03 -0.10301644D-03 -0.16319535D-04
 -0.72485214D+00 -0.70104543D+00 -0.21848524D+00 -0.14327388D+00  0.19164039D+00
  0.14463386D+00 -0.20357257D-01 -0.12801189D-01 -0.20279235D-02 -0.24583818D+00
 -0.15458964D+00 -0.24489597D-01 -0.12256283D-03 -0.77070799D-04 -0.12209309D-04
 -0.40272753D-01 -0.38950054D-01 -0.12139030D-01 -0.70933805D-02  0.94879695D-02
  0.71607121D-02  0.13962064D-01  0.87797206D-02  0.13908553D-02  0.65787627D-02
  0.41369025D-02  0.65535486D-03 -0.35263247D-04 -0.22174476D-04 -0.35128096D-05
 -0.21593591D-01 -0.20884381D-01 -0.65087495D-02 -0.35355527D-02  0.47290873D-02
  0.35691127D-02 -0.10558683D-02 -0.66395834D-03 -0.10518216D-03  0.11785658D-01
  0.74111380D-02  0.11740488D-02 -0.17234046D-04 -0.10837231D-04 -0.17167994D-05
 -0.12519388D+00 -0.12108207D+00 -0.37735991D-01 -0.16980834D-01  0.22713238D-01
  0.17142019D-01 -0.61942430D-01 -0.38951062D-01 -0.61705026D-02  0.16749489D+00
  0.10532528D+00  0.16685294D-01  0.31918990D-03  0.20071517D-03  0.31796656D-04
  0.13216887D-03  0.12782798D-03  0.39838397D-04  0.15572881D-03  0.15061413D-03
  0.46939846D-04  0.24264981D-02  0.23468033D-02  0.73139609D-03  0.24551632D-02
  0.23745269D-02  0.74003633D-03 -0.30185698D-01 -0.29194293D-01 -0.90985858D-02
MO    8     MO 0.0        OCC NO =    2.0000000  ORB. ENERGY =   -0.834027
  0.20462503D-01  0.19790442D-01  0.61678163D-02  0.43549084D-02 -0.58250418D-02
 -0.43962459D-02 -0.18413574D-01 -0.11578950D-01 -0.18343002D-02 -0.16656971D-01
 -0.10474350D-01 -0.16593131D-02  0.24994101D-04  0.15716961D-04  0.24898307D-05
  0.13753344D+00  0.13301635D+00  0.41455388D-01  0.28164022D-01 -0.37671655D-01
 -0.28431360D-01 -0.22559045D-01 -0.14185733D-01 -0.22472584D-02  0.35218964D-01
  0.22146630D-01  0.35083982D-02  0.31175009D-04  0.19603682D-04  0.31055526D-05
 -0.67520111D+00 -0.65302512D+00 -0.20351941D+00 -0.12589934D+00  0.16840054D+00
  0.12709440D+00  0.17151663D+00  0.10785426D+00  0.17085926D-01  0.91110008D-01
  0.57292418D-01  0.90760816D-02 -0.10443436D-02 -0.65671128D-03 -0.10403410D-03
 -0.30831123D+00 -0.29818520D+00 -0.92931301D-01 -0.47613350D-01  0.63686702D-01
  0.48065304D-01 -0.56420417D-01 -0.35478672D-01 -0.56204178D-02  0.47208756D-01
  0.29686133D-01  0.47027822D-02 -0.50457366D-03 -0.31728946D-03 -0.50263981D-04
 -0.26988836D-01 -0.26102428D-01 -0.81349865D-02 -0.43598504D-02  0.58316521D-02
  0.44012348D-02 -0.43155563D-01 -0.27137376D-01 -0.42990163D-02 -0.45893353D-01
 -0.28858972D-01 -0.45717460D-02  0.22094824D-04  0.13893818D-04  0.22010142D-05
  0.14827756D-01  0.14340760D-01  0.44693885D-02  0.14820253D-01  0.14333504D-01
  0.44671271D-02  0.36447057D-01  0.35250006D-01  0.10985887D-01  0.36425048D-01
  0.35228721D-01  0.10979254D-01 -0.29541438D-02 -0.28571192D-02 -0.89043927D-03
MO    9     MO 0.0        OCC NO =    2.0000000  ORB. ENERGY =   -0.656838
  0.12541684D+00  0.12129771D+00  0.37803198D-01  0.29087146D-01 -0.38906407D-01
 -0.29363246D-01 -0.23515439D+00 -0.14787139D+00 -0.23425312D-01 -0.71697037D-01
 -0.45085021D-01 -0.71422248D-02  0.75325671D-03  0.47366803D-03  0.75036974D-04
  0.15720547D+00  0.15204229D+00  0.47384939D-01  0.34656058D-01 -0.46355278D-01
 -0.34985020D-01 -0.41452923D-01 -0.26066710D-01 -0.41294049D-02 -0.25581871D-01
 -0.16086567D-01 -0.25483824D-02  0.27301192D-03  0.17167722D-03  0.27196556D-04
  0.32366479D+00  0.31303450D+00  0.97559180D-01  0.66314282D-01 -0.88700710D-01
 -0.66943749D-01  0.22114073D-01  0.13905922D-01  0.22029317D-02 -0.16527591D+00
 -0.10392993D+00 -0.16464247D-01  0.18328955D-02  0.11525739D-02  0.18258707D-03
 -0.45624834D+00 -0.44126353D+00 -0.13752257D+00 -0.80459934D-01  0.10762166D+00
  0.81223674D-01  0.10919014D+00  0.68661693D-01  0.10877166D-01 -0.45658732D-01
 -0.28711436D-01 -0.45483739D-02  0.56696156D-03  0.35652064D-03  0.56478860D-04
 -0.23470922D+00 -0.22700054D+00 -0.70746154D-01 -0.42553454D-01  0.56918682D-01
  0.42957379D-01 -0.97472109D-01 -0.61293078D-01 -0.97098533D-02 -0.12901416D+00
 -0.81127567D-01 -0.12851970D-01  0.41919133D-03  0.26359875D-03  0.41758471D-04
  0.43537097D-01  0.42107185D-01  0.13122970D-01  0.43527111D-01  0.42097527D-01
  0.13119960D-01 -0.32890916D-01 -0.31810662D-01 -0.99139939D-02 -0.32871199D-01
 -0.31791593D-01 -0.99080509D-02 -0.29805316D-01 -0.28826404D-01 -0.89839310D-02
MO   10     MO 0.0        OCC NO =    2.0000000  ORB. ENERGY =   -0.516368
  0.99074964D-01  0.95820992D-01  0.29863218D-01  0.24342299D-01 -0.32559791D-01
 -0.24573360D-01 -0.70834915D+00 -0.44542896D+00 -0.70563430D-01 -0.29445571D-01
 -0.18516165D-01 -0.29332717D-02  0.19406673D-02  0.12203437D-02  0.19332294D-03
  0.23100106D+00  0.22341417D+00  0.69628439D-01  0.55705940D-01 -0.74511195D-01
 -0.56234710D-01 -0.82463550D-02 -0.51855293D-02 -0.82147496D-03 -0.14161004D+00
 -0.89048196D-01 -0.14106730D-01 -0.43785292D-03 -0.27533366D-03 -0.43617478D-04
 -0.56722946D-01 -0.54859964D-01 -0.17097454D-01 -0.12903435D-01  0.17259387D-01
  0.13025917D-01 -0.67563056D-01 -0.42485463D-01 -0.67304111D-02  0.19899361D+00
  0.12513252D+00  0.19823094D-01 -0.23117639D-02 -0.14536992D-02 -0.23029037D-03
  0.22975001D+00  0.22220421D+00  0.69251347D-01  0.44470746D-01 -0.59483215D-01
 -0.44892870D-01  0.14584707D+00  0.91712550D-01  0.14528809D-01  0.13389748D+00
  0.84198327D-01  0.13338430D-01 -0.15024063D-02 -0.94475337D-03 -0.14966481D-03
 -0.34911978D+00 -0.33765345D+00 -0.10523183D+00 -0.72247268D-01  0.96636558D-01
  0.72933052D-01  0.53916716D-01  0.33904278D-01  0.53710073D-02 -0.15094759D+00
 -0.94919897D-01 -0.15036906D-01 -0.70839579D-03 -0.44545828D-03 -0.70568076D-04
 -0.42153223D-01 -0.40768762D-01 -0.12705842D-01 -0.42402434D-01 -0.41009788D-01
 -0.12780960D-01  0.23425870D-01  0.22656482D-01  0.70610358D-02  0.23326801D-01
  0.22560666D-01  0.70311743D-02 -0.79570692D-01 -0.76957309D-01 -0.23984232D-01
MO   11     MO 0.0        OCC NO =    2.0000000  ORB. ENERGY =   -0.448718
 -0.16292150D-03 -0.15757058D-03 -0.49107867D-04 -0.49689936D-04  0.66464304D-04
  0.50161602D-04  0.37698831D-02  0.23706037D-02  0.37554345D-03  0.21022416D-03
  0.13219459D-03  0.20941844D-04  0.12926783D+00  0.81287081D-01  0.12877239D-01
  0.26531832D-02  0.25660433D-02  0.79972362D-03  0.68249466D-03 -0.91289175D-03
 -0.68897302D-03 -0.27328118D-02 -0.17184654D-02 -0.27223379D-03 -0.19574873D-02
 -0.12309205D-02 -0.19499849D-03  0.14948550D+00  0.94000494D-01  0.14891258D-01
  0.21636718D-03  0.20926092D-03  0.65217488D-04  0.46400891D-04 -0.62064941D-04
 -0.46841336D-04  0.22711465D-03  0.14281579D-03  0.22624420D-04  0.56287621D-02
  0.35395167D-02  0.56071891D-03  0.46267235D+00  0.29094079D+00  0.46089909D-01
  0.37797769D-03  0.36556357D-03  0.11393020D-03  0.73989420D-04 -0.98966827D-04
 -0.74691740D-04  0.79132959D-03  0.49760928D-03  0.78829671D-04  0.48633935D-02
  0.30582324D-02  0.48447539D-03  0.35364709D+00  0.22238278D+00  0.35229169D-01
 -0.15236934D-02 -0.14736499D-02 -0.45927231D-03 -0.30111328D-03  0.40276333D-03
  0.30397150D-03 -0.22678695D-02 -0.14260972D-02 -0.22591776D-03  0.24404215D-03
  0.15346025D-03  0.24310682D-04  0.15110006D+00  0.95015771D-01  0.15052095D-01
 -0.67171639D-01 -0.64965484D-01 -0.20246904D-01  0.66496726D-01  0.64312739D-01
  0.20043472D-01 -0.71677080D-01 -0.69322951D-01 -0.21604936D-01  0.71764173D-01
  0.69407184D-01  0.21631188D-01  0.36331486D-03  0.35138232D-03  0.10951052D-03
MO   12     MO 0.0        OCC NO =    2.0000000  ORB. ENERGY =   -0.415536
 -0.63591706D-02 -0.61503130D-02 -0.19167839D-02 -0.10464136D-02  0.13996628D-02
  0.10563464D-02 -0.62820659D+00 -0.39503316D+00 -0.62579890D-01  0.24515810D-01
  0.15416199D-01  0.24421850D-02  0.41331163D-02  0.25990145D-02  0.41172756D-03
 -0.22309393D+00 -0.21576673D+00 -0.67245066D-01 -0.58756871D-01  0.78592062D-01
  0.59314602D-01  0.37044392D+00  0.23294508D+00  0.36902414D-01  0.23084856D+00
  0.14516377D+00  0.22996380D-01  0.14787307D-02  0.92986558D-03  0.14730633D-03
 -0.10870116D+00 -0.10513103D+00 -0.32764749D-01 -0.25076302D-01  0.33541580D-01
  0.25314331D-01 -0.98279039D-01 -0.61800497D-01 -0.97902370D-02 -0.82879893D-01
 -0.52117101D-01 -0.82562244D-02  0.40145803D-02  0.25244759D-02  0.39991939D-03
  0.20215517D-01  0.19551568D-01  0.60933698D-02  0.48972901D-02 -0.65505212D-02
 -0.49437761D-02 -0.15540912D+00 -0.97725425D-01 -0.15481349D-01 -0.28565144D+00
 -0.17962529D+00 -0.28455664D-01  0.45630673D-02  0.28693792D-02  0.45455787D-03
  0.13657299D+00  0.13208745D+00  0.41165890D-01  0.26079210D-01 -0.34883050D-01
 -0.26326758D-01  0.38214132D+00  0.24030071D+00  0.38067670D-01 -0.57108179D-01
 -0.35911156D-01 -0.56889304D-02  0.10340036D-02  0.65020923D-03  0.10300407D-03
  0.38182416D-01  0.36928371D-01  0.11508960D-01  0.39231533D-01  0.37943031D-01
  0.11825185D-01 -0.16627774D-02 -0.16081659D-02 -0.50119508D-03 -0.70472731D-03
 -0.68158157D-03 -0.21241920D-03 -0.66291742D-01 -0.64114487D-01 -0.19981685D-01
MO   13     MO 0.0        OCC NO =    2.0000000  ORB. ENERGY =   -0.378745
 -0.29037601D+00 -0.28083904D+00 -0.87525262D-01 -0.77224737D-01  0.10329432D+00
  0.77957768D-01  0.16552972D-01  0.10408953D-01  0.16489530D-02 -0.61473839D+00
 -0.38656400D+00 -0.61238232D-01 -0.58337446D-03 -0.36684151D-03 -0.58113859D-04
 -0.41058110D+00 -0.39709616D+00 -0.12375753D+00 -0.11187287D+00  0.14963900D+00
  0.11293478D+00 -0.25880724D+00 -0.16274494D+00 -0.25781532D-01  0.62450940D+00
  0.39270827D+00  0.62211588D-01  0.14154320D-02  0.89006162D-03  0.14100071D-03
  0.51420874D-01  0.49732031D-01  0.15499302D-01  0.13204025D-01 -0.17661450D-01
 -0.13329359D-01 -0.14970002D+00 -0.94135393D-01 -0.14912628D-01  0.28145727D+00
  0.17698789D+00  0.28037855D-01 -0.10047705D-02 -0.63182664D-03 -0.10009196D-03
  0.11463764D-01  0.11087253D-01  0.34554126D-02  0.49525078D-02 -0.66243793D-02
 -0.49995179D-02  0.21116169D+00  0.13278414D+00  0.21035239D-01 -0.75174533D-01
 -0.47271763D-01 -0.74886415D-02 -0.27112934D-03 -0.17049340D-03 -0.27009020D-04
  0.19374015D+00  0.18737704D+00  0.58397237D-01  0.41003200D-01 -0.54845092D-01
 -0.41392409D-01 -0.20139985D+00 -0.12664563D+00 -0.20062796D-01 -0.18625230D+00
 -0.11712044D+00 -0.18553846D-01  0.62516835D-03  0.39312263D-03  0.62277230D-04
  0.12625916D-01  0.12211236D-01  0.38057089D-02  0.11936063D-01  0.11544041D-01
  0.35977733D-02  0.31488171D-01  0.30453988D-01  0.94911778D-02  0.32306404D-01
  0.31245348D-01  0.97378101D-02 -0.32025156D-01 -0.30973337D-01 -0.96530362D-02
MO   14     MO 0.0        OCC NO =    2.0000000  ORB. ENERGY =   -0.357367
 -0.89144222D-02 -0.86216411D-02 -0.26869889D-02 -0.24008114D-02  0.32112792D-02
  0.24236003D-02 -0.13354055D-01 -0.83973883D-02 -0.13302874D-02 -0.13855218D-01
 -0.87125328D-02 -0.13802116D-02 -0.41755445D+00 -0.26256945D+00 -0.41595412D-01
 -0.69975024D-02 -0.67676797D-02 -0.21091902D-02 -0.19089128D-02  0.25533250D-02
  0.19270325D-02 -0.48206106D-02 -0.30313293D-02 -0.48021349D-03  0.12215337D-01
  0.76813315D-02  0.12168520D-02 -0.40847104D+00 -0.25685755D+00 -0.40690551D-01
 -0.18047591D-02 -0.17454845D-02 -0.54399126D-03 -0.51459528D-03  0.68831276D-03
  0.51947991D-03  0.15707491D-01  0.98772920D-02  0.15647290D-02 -0.14520533D-01
 -0.91309007D-02 -0.14464881D-02  0.49660362D+00  0.31227769D+00  0.49470032D-01
 -0.11806536D-02 -0.11418768D-02 -0.35587312D-03 -0.38908463D-03  0.52043212D-03
  0.39277789D-03 -0.11452991D-01 -0.72019479D-02 -0.11409095D-02  0.10888461D-01
  0.68469563D-02  0.10846729D-02 -0.21760493D+00 -0.13683582D+00 -0.21677093D-01
  0.35069444D-02  0.33917639D-02  0.10570647D-02  0.66559416D-03 -0.89028596D-03
 -0.67191209D-03 -0.14761521D-02 -0.92824408D-03 -0.14704946D-03 -0.29787505D-02
 -0.18731182D-02 -0.29673340D-03 -0.31792011D+00 -0.19991669D+00 -0.31670163D-01
  0.52990921D-01  0.51250511D-01  0.15972546D-01 -0.57049862D-01 -0.55176143D-01
 -0.17195994D-01 -0.89498684D-01 -0.86559231D-01 -0.26976731D-01  0.84899803D-01
  0.82111394D-01  0.25590535D-01 -0.22816515D-02 -0.22067140D-02 -0.68773638D-03
MO   15     MO 0.0        OCC NO =    2.0000000  ORB. ENERGY =   -0.352095
  0.23558578D+00  0.22784831D+00  0.71010365D-01  0.63566485D-01 -0.85025309D-01
 -0.64169869D-01  0.26218536D+00  0.16486919D+00  0.26118049D-01  0.39539276D+00
  0.24863358D+00  0.39387736D-01 -0.17657449D-01 -0.11103478D-01 -0.17589774D-02
  0.17274363D+00  0.16707012D+00  0.52068459D-01  0.47173481D-01 -0.63098342D-01
 -0.47621260D-01  0.11447192D+00  0.71983014D-01  0.11403319D-01 -0.29424948D+00
 -0.18503197D+00 -0.29312173D-01 -0.17218025D-01 -0.10827156D-01 -0.17152035D-02
  0.48638203D-01  0.47040752D-01  0.14660548D-01  0.13549805D-01 -0.18123959D-01
 -0.13678422D-01 -0.33978768D+00 -0.21366761D+00 -0.33848540D-01  0.44095500D+00
  0.27728433D+00  0.43926497D-01  0.17452515D-01  0.10974610D-01  0.17385626D-02
  0.17822098D-01  0.17236758D-01  0.53719445D-02  0.68568547D-02 -0.91715971D-02
 -0.69219412D-02  0.24806189D+00  0.15598798D+00  0.24711116D-01 -0.29112522D+00
 -0.18306735D+00 -0.29000944D-01 -0.76506499D-02 -0.48109339D-02 -0.76213277D-03
 -0.77837196D-01 -0.75280747D-01 -0.23461721D-01 -0.14687525D-01  0.19645751D-01
  0.14826942D-01  0.44763105D-01  0.28148242D-01  0.44591544D-02  0.82731565D-01
  0.52023828D-01  0.82414484D-02 -0.12714190D-01 -0.79950240D-02 -0.12665461D-02
  0.51924748D-01  0.50219356D-01  0.15651180D-01  0.46659286D-01  0.45126830D-01
  0.14064062D-01  0.46438302D-01  0.44913104D-01  0.13997453D-01  0.54190309D-01
  0.52410508D-01  0.16334066D-01  0.55578820D-01  0.53753415D-01  0.16752592D-01
MO   16     MO 0.0        OCC NO =    2.0000000  ORB. ENERGY =   -0.308151
  0.57492203D-03  0.55603956D-03  0.17329324D-03  0.15537783D-03 -0.20783039D-03
 -0.15685270D-03  0.25557955D-02  0.16071528D-02  0.25460000D-03  0.11742300D-03
  0.73838732D-04  0.11697296D-04  0.64369312D+00  0.40477151D+00  0.64122608D-01
  0.49822583D-03  0.48186233D-03  0.15017544D-03  0.13598141D-03 -0.18188612D-03
 -0.13727217D-03  0.20135548D-02  0.12661773D-02  0.20058376D-03 -0.15398766D-02
 -0.96831572D-03 -0.15339748D-03  0.68918562D+00  0.43337841D+00  0.68654422D-01
 -0.46904423D-03 -0.45363916D-03 -0.14137951D-03 -0.12932288D-03  0.17297979D-03
  0.13055043D-03  0.18948783D-02  0.11915503D-02  0.18876159D-03  0.24808990D-03
  0.15600559D-03  0.24713906D-04  0.19303137D+00  0.12138330D+00  0.19229155D-01
 -0.93181719D-04 -0.90121302D-04 -0.28086873D-04 -0.40999072D-04  0.54839571D-04
  0.41388242D-04 -0.33279497D-03 -0.20927041D-03 -0.33151948D-04 -0.77459513D-03
 -0.48708621D-03 -0.77162639D-04 -0.28038784D+00 -0.17631540D+00 -0.27931321D-01
 -0.26446052D-03 -0.25577470D-03 -0.79713803D-04 -0.53362760D-04  0.71377003D-04
  0.53869289D-04  0.12427330D-02  0.78146388D-03  0.12379701D-03 -0.83604619D-04
 -0.52572828D-04 -0.83284192D-05  0.38101314D+00  0.23959129D+00  0.37955286D-01
  0.77872099D-01  0.75314504D-01  0.23472241D-01 -0.78437911D-01 -0.75861732D-01
 -0.23642788D-01 -0.43246467D-01 -0.41826100D-01 -0.13035369D-01  0.42785218D-01
  0.41380000D-01  0.12896339D-01  0.13466174D-03  0.13023898D-03  0.40589800D-04
MO   17     MO 0.0        OCC NO =    2.0000000  ORB. ENERGY =   -0.284182
  0.34529266D+00  0.33395203D+00  0.10407826D+00  0.96837303D-01 -0.12952772D+00
 -0.97756500D-01 -0.77231704D-02 -0.48565368D-02 -0.76935703D-03  0.87688335D+00
  0.55140778D+00  0.87352257D-01  0.16176126D-02  0.10171982D-02  0.16114129D-03
 -0.25009118D+00 -0.24187730D+00 -0.75382589D-01 -0.72045498D-01  0.96366674D-01
  0.72729367D-01  0.24531804D+00  0.15426257D+00  0.24437782D-01  0.81845726D+00
  0.51466789D+00  0.81532041D-01 -0.20039881D-03 -0.12601615D-03 -0.19963075D-04
  0.38259298D-01  0.37002728D-01  0.11532134D-01  0.93356281D-02 -0.12487157D-01
 -0.94242435D-02  0.11826777D+00  0.74369949D-01  0.11781449D-01  0.27239458D-01
  0.17128902D-01  0.27135059D-02 -0.78741101D-03 -0.49514518D-03 -0.78439315D-04
 -0.62715980D-01 -0.60656165D-01 -0.18903877D-01 -0.15409087D-01  0.20610899D-01
  0.15555353D-01  0.93104865D-01  0.58546838D-01  0.92748028D-02  0.16680576D+00
  0.10489194D+00  0.16616645D-01 -0.74578999D-03 -0.46897276D-03 -0.74293165D-04
  0.61532507D-02  0.59511562D-02  0.18547154D-02 -0.28823443D-03  0.38553684D-03
  0.29097040D-03  0.50602338D-01  0.31820108D-01  0.50408397D-02 -0.27085803D+00
 -0.17032280D+00 -0.26981993D-01 -0.29159370D-03 -0.18336194D-03 -0.29047613D-04
 -0.22629870D-01 -0.21886625D-01 -0.68211051D-02 -0.22226110D-01 -0.21496126D-01
 -0.66994036D-02 -0.15438571D-02 -0.14931514D-02 -0.46535006D-03 -0.17504248D-02
 -0.16929347D-02 -0.52761380D-03  0.71152630D-01  0.68815726D-01  0.21446856D-01
MO   18     MO 0.0        OCC NO =    2.0000000  ORB. ENERGY =   -0.193110
 -0.13884068D-03 -0.13428066D-03 -0.41849417D-04 -0.38248730D-04  0.51160767D-04
  0.38611794D-04  0.42765004D-02  0.26891782D-02  0.42601101D-03 -0.21073435D-02
 -0.13251541D-02 -0.20992668D-03  0.13582837D+01  0.85412525D+00  0.13530779D+00
  0.83292739D-04  0.80557111D-04  0.25106133D-04  0.24109238D-04 -0.32248053D-04
 -0.24338087D-04 -0.21003787D-02 -0.13207745D-02 -0.20923287D-03  0.16497208D-03
  0.10373887D-03  0.16433980D-04 -0.96230484D+00 -0.60512311D+00 -0.95861667D-01
  0.63003738D-03  0.60934473D-03  0.18990614D-03  0.16533141D-03 -0.22114411D-03
 -0.16690076D-03  0.10226834D-02  0.64309074D-03  0.10187638D-03  0.10887106D-02
  0.68461045D-03  0.10845380D-03  0.22018998D-01  0.13846137D-01  0.21934607D-02