 opt glycine m062x
GAUSSIAN             20 MOL ORBITALS     90 PRIMITIVES       10 NUCLEI
  O    1    (CENTRE  1)   3.22293071 -1.27065586 -0.00444462  CHARGE =  8.0
  O    2    (CENTRE  2)   1.05402846  2.54651937  0.00271235  CHARGE =  8.0
  N    3    (CENTRE  3)  -3.79589995  0.03381207 -0.00418039  CHARGE =  7.0
  C    4    (CENTRE  4)  -1.40532674 -1.47947834  0.00675819  CHARGE =  6.0
  C    5    (CENTRE  5)   1.02097461  0.20698456  0.00146582  CHARGE =  6.0
  H    6    (CENTRE  6)  -1.36515360 -2.71484809 -1.66866058  CHARGE =  1.0
  H    7    (CENTRE  7)  -1.36980947 -2.69592001  1.69620079  CHARGE =  1.0
  H    8    (CENTRE  8)  -3.61168545  1.26233243 -1.56237602  CHARGE =  1.0
  H    9    (CENTRE  9)  -3.60992904  1.28617378  1.53474761  CHARGE =  1.0
  H   10    (CENTRE 10)   4.61831670  0.05363198 -0.00613500  CHARGE =  1.0
CENTRE ASSIGNMENTS    1  1  1  1  1  1  1  1  1  1  1  1  1  1  1  2  2  2  2  2
CENTRE ASSIGNMENTS    2  2  2  2  2  2  2  2  2  2  3  3  3  3  3  3  3  3  3  3
CENTRE ASSIGNMENTS    3  3  3  3  3  4  4  4  4  4  4  4  4  4  4  4  4  4  4  4
CENTRE ASSIGNMENTS    5  5  5  5  5  5  5  5  5  5  5  5  5  5  5  6  6  6  7  7
CENTRE ASSIGNMENTS    7  8  8  8  9  9  9 10 10 10
TYPE ASSIGNMENTS      1  1  1  1  1  1  2  2  2  3  3  3  4  4  4  1  1  1  1  1
TYPE ASSIGNMENTS      1  2  2  2  3  3  3  4  4  4  1  1  1  1  1  1  2  2  2  3
TYPE ASSIGNMENTS      3  3  4  4  4  1  1  1  1  1  1  2  2  2  3  3  3  4  4  4
TYPE ASSIGNMENTS      1  1  1  1  1  1  2  2  2  3  3  3  4  4  4  1  1  1  1  1
TYPE ASSIGNMENTS      1  1  1  1  1  1  1  1  1  1
EXPONENTS  0.1307093D+03 0.2380887D+02 0.6443608D+01 0.5033151D+01 0.1169596D+01
EXPONENTS  0.3803890D+00 0.5033151D+01 0.1169596D+01 0.3803890D+00 0.5033151D+01
EXPONENTS  0.1169596D+01 0.3803890D+00 0.5033151D+01 0.1169596D+01 0.3803890D+00
EXPONENTS  0.1307093D+03 0.2380887D+02 0.6443608D+01 0.5033151D+01 0.1169596D+01
EXPONENTS  0.3803890D+00 0.5033151D+01 0.1169596D+01 0.3803890D+00 0.5033151D+01
EXPONENTS  0.1169596D+01 0.3803890D+00 0.5033151D+01 0.1169596D+01 0.3803890D+00
EXPONENTS  0.9910617D+02 0.1805231D+02 0.4885660D+01 0.3780456D+01 0.8784966D+00
EXPONENTS  0.2857144D+00 0.3780456D+01 0.8784966D+00 0.2857144D+00 0.3780456D+01
EXPONENTS  0.8784966D+00 0.2857144D+00 0.3780456D+01 0.8784966D+00 0.2857144D+00
EXPONENTS  0.7161684D+02 0.1304510D+02 0.3530512D+01 0.2941249D+01 0.6834831D+00
EXPONENTS  0.2222899D+00 0.2941249D+01 0.6834831D+00 0.2222899D+00 0.2941249D+01
EXPONENTS  0.6834831D+00 0.2222899D+00 0.2941249D+01 0.6834831D+00 0.2222899D+00
EXPONENTS  0.7161684D+02 0.1304510D+02 0.3530512D+01 0.2941249D+01 0.6834831D+00
EXPONENTS  0.2222899D+00 0.2941249D+01 0.6834831D+00 0.2222899D+00 0.2941249D+01
EXPONENTS  0.6834831D+00 0.2222899D+00 0.2941249D+01 0.6834831D+00 0.2222899D+00
EXPONENTS  0.3425251D+01 0.6239137D+00 0.1688554D+00 0.3425251D+01 0.6239137D+00
EXPONENTS  0.1688554D+00 0.3425251D+01 0.6239137D+00 0.1688554D+00 0.3425251D+01
EXPONENTS  0.6239137D+00 0.1688554D+00 0.3425251D+01 0.6239137D+00 0.1688554D+00
MO    1     MO 0.0        OCC NO =    2.0000000  ORB. ENERGY =  -19.431571
  0.42264922D+01  0.40876792D+01  0.12739511D+01 -0.63847711D-02  0.85401472D-02
  0.64453765D-02 -0.99609985D-03 -0.62637432D-03 -0.99228215D-04  0.69670082D-02
  0.43810417D-02  0.69403062D-03  0.83698223D-05  0.52631688D-05  0.83377437D-06
  0.37902229D-02  0.36657386D-02  0.11424506D-02 -0.52036005D-04  0.69602361D-04
  0.52529940D-04  0.10409235D-02  0.65456066D-03  0.10369341D-03 -0.15217816D-03
 -0.95693711D-04 -0.15159492D-04 -0.24147451D-05 -0.15184565D-05 -0.24054902D-06
  0.72023019D-05  0.69657528D-05  0.21709209D-05 -0.16719592D-05  0.22363805D-05
  0.16878297D-05 -0.58661935D-04 -0.36888199D-04 -0.58437105D-05 -0.37382380D-04
 -0.23507044D-04 -0.37239107D-05  0.52407794D-06  0.32955428D-06  0.52206934D-07
 -0.61769045D-04 -0.59740331D-04 -0.18618452D-04 -0.50610991D-04  0.67696290D-04
  0.51091400D-04  0.25253517D-03  0.15880089D-03  0.25156729D-04 -0.90989696D-04
 -0.57216762D-04 -0.90640965D-05 -0.16151609D-05 -0.10156565D-05 -0.16089705D-06
  0.14617035D-02  0.14136960D-02  0.44058731D-03  0.73140741D-03 -0.97831649D-03
 -0.73835005D-03 -0.33315478D-02 -0.20949666D-02 -0.33187791D-03  0.23804295D-02
  0.14968779D-02  0.23713061D-03  0.90710676D-05  0.57041308D-05  0.90363015D-06
 -0.20624129D-04 -0.19946760D-04 -0.62165338D-05 -0.19670024D-04 -0.19023991D-04
 -0.59289470D-05 -0.10215086D-04 -0.98795862D-05 -0.30790355D-05 -0.10611669D-04
 -0.10263145D-04 -0.31985739D-05 -0.16153281D-02 -0.15622750D-02 -0.48689288D-03
MO    2     MO 0.0        OCC NO =    2.0000000  ORB. ENERGY =  -19.379738
 -0.41075524D-02 -0.39726459D-02 -0.12381002D-02 -0.59489726D-04  0.79572315D-04
  0.60054413D-04  0.29540732D-03  0.18576005D-03  0.29427512D-04  0.83067048D-03
  0.52234789D-03  0.82748681D-04 -0.17863375D-06 -0.11232970D-06 -0.17794911D-07
  0.42267510D+01  0.40879295D+01  0.12740291D+01 -0.64184106D-02  0.85851427D-02
  0.64793352D-02 -0.98981434D-04 -0.62242182D-04 -0.98602074D-05 -0.96483055D-02
 -0.60671134D-02 -0.96113270D-03 -0.51722559D-05 -0.32524533D-05 -0.51524325D-06
 -0.22623410D-04 -0.21880377D-04 -0.68191578D-05 -0.60361932D-05  0.80738960D-05
  0.60934898D-05 -0.42343774D-04 -0.26626902D-04 -0.42181486D-05  0.14037260D-03
  0.88270057D-04  0.13983460D-04  0.57941202D-06  0.36434983D-06  0.57719134D-07
 -0.54676811D-04 -0.52881031D-04 -0.16480708D-04 -0.22861854D-04  0.30579577D-04
  0.23078863D-04 -0.16608291D-03 -0.10443739D-03 -0.16544638D-04  0.39772370D-03
  0.25009934D-03  0.39619937D-04  0.30188970D-06  0.18983635D-06  0.30073267D-07
  0.16445081D-02  0.15904966D-02  0.49568832D-03  0.11914922D-02 -0.15937170D-02
 -0.12028020D-02 -0.10436272D-03 -0.65626076D-04 -0.10396273D-04 -0.58759868D-02
 -0.36949782D-02 -0.58534662D-03 -0.30600573D-05 -0.19242462D-05 -0.30483292D-06
  0.10350390D-04  0.10010447D-04  0.31198190D-05  0.10434362D-04  0.10091661D-04
  0.31451299D-05 -0.32808509D-04 -0.31730961D-04 -0.98891546D-05 -0.34369626D-04
 -0.33240806D-04 -0.10359707D-04 -0.34651778D-04 -0.33513691D-04 -0.10444754D-04
MO    3     MO 0.0        OCC NO =    2.0000000  ORB. ENERGY =  -14.552273
  0.27614732D-04  0.26707767D-04  0.83236444D-05  0.42270281D-05 -0.56539916D-05
 -0.42671518D-05  0.69823514D-04  0.43906899D-04  0.69555905D-05  0.82572721D-04
  0.51923943D-04  0.82256249D-05 -0.21958610D-06 -0.13808163D-06 -0.21874451D-07
 -0.58189733D-04 -0.56278577D-04 -0.17539574D-04 -0.42678989D-05  0.57086596D-05
  0.43084105D-05 -0.14264193D-03 -0.89697072D-04 -0.14209523D-04  0.11389017D-03
  0.71617196D-04  0.11345367D-04  0.12778520D-05  0.80354763D-06  0.12729545D-06
  0.34310488D+01  0.33183610D+01  0.10341882D+01 -0.62969370D-02  0.84226620D-02
  0.63567087D-02  0.51872387D-02  0.32618749D-02  0.51673578D-03  0.36828412D-02
  0.23158694D-02  0.36687262D-03 -0.30719171D-04 -0.19317039D-04 -0.30601436D-05
  0.14687081D-02  0.14204705D-02  0.44269863D-03  0.87820679D-03 -0.11746725D-02
 -0.88654288D-03  0.34251006D-02  0.21537952D-02  0.34119734D-03 -0.22659593D-02
 -0.14248960D-02 -0.22572747D-03  0.16733247D-04  0.10522315D-04  0.16669114D-05
 -0.63711942D-04 -0.61619416D-04 -0.19204081D-04 -0.61093817D-04  0.81717916D-04
  0.61673731D-04 -0.28287775D-03 -0.17788112D-03 -0.28179358D-04  0.10641584D-03
  0.66917138D-04  0.10600799D-04 -0.70700332D-06 -0.44458266D-06 -0.70429362D-07
  0.82505075D-04  0.79795316D-04  0.24868715D-04  0.82211207D-04  0.79511101D-04
  0.24780137D-04 -0.19608457D-02 -0.18964446D-02 -0.59103895D-03 -0.19608132D-02
 -0.18964131D-02 -0.59102914D-03 -0.24556515D-05 -0.23749992D-05 -0.74018352D-06
MO    4     MO 0.0        OCC NO =    2.0000000  ORB. ENERGY =  -10.486911
  0.21557919D-02  0.20849881D-02  0.64979972D-03  0.11723739D-02 -0.15681448D-02
 -0.11835023D-02  0.49506445D-02  0.31130981D-02  0.49316705D-03 -0.26708106D-02
 -0.16794774D-02 -0.26605744D-03 -0.12613695D-04 -0.79318298D-05 -0.12565351D-05
  0.16745470D-02  0.16195490D-02  0.50474268D-03  0.16211537D-02 -0.21684240D-02
 -0.16365419D-02 -0.46538944D-04 -0.29264937D-04 -0.46360577D-05  0.43849974D-02
  0.27574040D-02  0.43681912D-03  0.24983360D-05  0.15710207D-05  0.24887607D-06
 -0.11495098D-03 -0.11117558D-03 -0.34648572D-04 -0.96992518D-04  0.12973533D-03
  0.97913188D-04  0.11070879D-03  0.69616658D-04  0.11028448D-04  0.55296241D-04
  0.34771760D-04  0.55084310D-05  0.66207298D-06  0.41632926D-06  0.65953549D-07
 -0.15076891D-01 -0.14581713D-01 -0.45444830D-02  0.97191363D-03 -0.13000130D-02
 -0.98113920D-03 -0.32069059D-02 -0.20165885D-02 -0.31946150D-03 -0.24859447D-02
 -0.15632287D-02 -0.24764170D-03  0.80377521D-05  0.50543542D-05  0.80069462D-06
  0.26861838D+01  0.25979600D+01  0.80967066D+00 -0.55218302D-02  0.73858940D-02
  0.55742444D-02  0.84593694D-04  0.53194785D-04  0.84269477D-05  0.64729868D-03
  0.40703878D-03  0.64481782D-04  0.81402362D-06  0.51187989D-06  0.81090375D-07
 -0.29077554D-04 -0.28122544D-04 -0.87645686D-05 -0.29613274D-04 -0.28640670D-04
 -0.89260458D-05 -0.10437126D-03 -0.10094334D-03 -0.31459631D-04 -0.10527144D-03
 -0.10181395D-03 -0.31730962D-04 -0.44211351D-03 -0.42759294D-03 -0.13326204D-03
MO    5     MO 0.0        OCC NO =    2.0000000  ORB. ENERGY =  -10.426205
 -0.51445227D-04 -0.49755584D-04 -0.15506642D-04 -0.59305573D-04  0.79325995D-04
  0.59868512D-04 -0.15985993D-03 -0.10052421D-03 -0.15924724D-04  0.61982534D-04
  0.38976281D-04  0.61744977D-05 -0.34824103D-06 -0.21898330D-06 -0.34690635D-07
 -0.88353575D-04 -0.85451731D-04 -0.26631572D-04 -0.36382785D-04  0.48664914D-04
  0.36728136D-04 -0.49262144D-03 -0.30977358D-03 -0.49073340D-04 -0.15739454D-03
 -0.98973909D-04 -0.15679130D-04  0.10186058D-05  0.64052663D-06  0.10147018D-06
  0.22200641D-02  0.21471494D-02  0.66917267D-03  0.10582975D-02 -0.14155584D-02
 -0.10683431D-02 -0.42774929D-02 -0.26898024D-02 -0.42610988D-03  0.29715625D-02
  0.18685982D-02  0.29601735D-03 -0.21431515D-04 -0.13476712D-04 -0.21349376D-05
  0.26842956D+01  0.25961338D+01  0.80910151D+00 -0.64075902D-02  0.85706696D-02
  0.64684122D-02  0.24784450D-03  0.15585127D-03  0.24689460D-04 -0.51161006D-03
 -0.32171413D-03 -0.50964924D-04  0.51822743D-05  0.32587531D-05  0.51624125D-06
  0.18612830D-01  0.18001519D-01  0.56102872D-02  0.98703605D-03 -0.13202405D-02
 -0.99640516D-03  0.36134822D-02  0.22722546D-02  0.35996331D-03  0.24123299D-02
  0.15169378D-02  0.24030843D-03 -0.72052769D-05 -0.45308715D-05 -0.71776616D-06
 -0.22595392D-02 -0.21853279D-02 -0.68107126D-03 -0.22595912D-02 -0.21853783D-02
 -0.68108695D-03 -0.13982102D-03 -0.13522881D-03 -0.42144912D-04 -0.13994644D-03
 -0.13535011D-03 -0.42182716D-04 -0.37235484D-04 -0.36012539D-04 -0.11223535D-04
MO    6     MO 0.0        OCC NO =    2.0000000  ORB. ENERGY =   -1.149015
 -0.66281802D+00 -0.64104873D+00 -0.19978689D+00 -0.13207300D+00  0.17665830D+00
  0.13332666D+00 -0.57630557D-01 -0.36239641D-01 -0.57409680D-02  0.19740921D+00
  0.12413621D+00  0.19665261D-01  0.29255233D-03  0.18396476D-03  0.29143108D-04
 -0.58093478D+00 -0.56185483D+00 -0.17510561D+00 -0.11186114D+00  0.14962332D+00
  0.11292295D+00  0.12560158D-01  0.78981641D-02  0.12512019D-02 -0.22752243D+00
 -0.14307221D+00 -0.22665042D-01 -0.16219318D-03 -0.10199142D-03 -0.16157155D-04
 -0.27711423D-01 -0.26801282D-01 -0.83527890D-02 -0.47545198D-02  0.63595543D-02
  0.47996505D-02  0.11445571D-01  0.71972824D-02  0.11401704D-02  0.22756448D-02
  0.14309865D-02  0.22669230D-03 -0.55365062D-05 -0.34815036D-05 -0.55152867D-06
 -0.55657405D-01 -0.53829419D-01 -0.16776279D-01 -0.81996701D-02  0.10967721D-01
  0.82775028D-02  0.18185429D-01  0.11435485D-01  0.18115730D-02  0.12290363D-01
  0.77285100D-02  0.12243258D-02 -0.45953267D-04 -0.28896648D-04 -0.45777145D-05
 -0.35425874D+00 -0.34262363D+00 -0.10678082D+00 -0.49893614D-01  0.66736740D-01
  0.50367213D-01  0.59561648D-01  0.37453963D-01  0.59333369D-02  0.52680615D-01
  0.33126984D-01  0.52478709D-02 -0.10985805D-03 -0.69081688D-04 -0.10943700D-04
  0.18450584D-02  0.17844602D-02  0.55613829D-03  0.18371680D-02  0.17768289D-02
  0.55375995D-03  0.14109257D-02  0.13645859D-02  0.42528183D-03  0.14247434D-02
  0.13779498D-02  0.42944677D-03  0.25486131D-01  0.24649077D-01  0.76820406D-02
MO    7     MO 0.0        OCC NO =    2.0000000  ORB. ENERGY =   -1.061953
 -0.70083167D+00 -0.67781388D+00 -0.21124498D+00 -0.14372377D+00  0.19224216D+00
  0.14508803D+00  0.16363619D-02  0.10289883D-02  0.16300903D-03  0.15592717D+00
  0.98051189D-01  0.15532956D-01  0.14162189D-03  0.89055645D-04  0.14107910D-04
  0.70794656D+00  0.68469509D+00  0.21338955D+00  0.14064194D+00 -0.18811996D+00
 -0.14197694D+00  0.19420336D-01  0.12212028D-01  0.19345904D-02  0.22240087D+00
  0.13985164D+00  0.22154849D-01  0.90056679D-04  0.56630056D-04  0.89711523D-05
  0.38030124D-01  0.36781080D-01  0.11463056D-01  0.66897879D-02 -0.89481318D-02
 -0.67532885D-02 -0.13235246D-01 -0.83226778D-02 -0.13184520D-02 -0.58413210D-02
 -0.36731794D-02 -0.58189333D-03  0.18302950D-04  0.11509386D-04  0.18232802D-05
  0.18978480D-01  0.18355159D-01  0.57205014D-02  0.31009668D-02 -0.41477937D-02
 -0.31304018D-02  0.13689125D-02  0.86080893D-03  0.13636660D-03 -0.11124079D-01
 -0.69951195D-02 -0.11081445D-02  0.11088164D-04  0.69725353D-05  0.11045667D-05
  0.10923746D+00  0.10564971D+00  0.32926401D-01  0.14534141D-01 -0.19440587D-01
 -0.14672101D-01  0.68393496D-01  0.43007666D-01  0.68131368D-02 -0.16614345D+00
 -0.10447546D+00 -0.16550669D-01 -0.24442299D-03 -0.15369973D-03 -0.24348620D-04
 -0.17853836D-04 -0.17267453D-04 -0.53815110D-05 -0.34734679D-04 -0.33593870D-04
 -0.10469742D-04 -0.22900285D-02 -0.22148158D-02 -0.69026135D-03 -0.23114412D-02
 -0.22355253D-02 -0.69671560D-03  0.30258984D-01  0.29265172D-01  0.91206757D-02
MO    8     MO 0.0        OCC NO =    2.0000000  ORB. ENERGY =   -0.938354
  0.21822804D-01  0.21106066D-01  0.65778390D-02  0.46476566D-02 -0.62166162D-02
 -0.46917730D-02 -0.18764874D-01 -0.11799856D-01 -0.18692954D-02 -0.17642479D-01
 -0.11094064D-01 -0.17574861D-02  0.13681459D-04  0.86032684D-05  0.13629023D-05
  0.13894788D+00  0.13438434D+00  0.41881728D-01  0.28708904D-01 -0.38400478D-01
 -0.28981414D-01 -0.27461608D-01 -0.17268596D-01 -0.27356357D-02  0.29968926D-01
  0.18845265D-01  0.29854066D-02  0.27515394D-04  0.17302418D-04  0.27409937D-05
 -0.66968493D+00 -0.64769011D+00 -0.20185672D+00 -0.12503441D+00  0.16724362D+00
  0.12622126D+00  0.16301032D+00  0.10250527D+00  0.16238556D-01  0.77994167D-01
  0.49044825D-01  0.77695243D-02 -0.67232469D-03 -0.42277581D-03 -0.66974791D-04
 -0.31188660D+00 -0.30164314D+00 -0.94008993D-01 -0.48012599D-01  0.64220730D-01
  0.48468343D-01 -0.56558983D-01 -0.35565806D-01 -0.56342213D-02  0.49600108D-01
  0.31189879D-01  0.49410008D-02 -0.36000936D-03 -0.22638355D-03 -0.35862957D-04
 -0.29950635D-01 -0.28966950D-01 -0.90277331D-02 -0.48390521D-02  0.64726232D-02
  0.48849853D-02 -0.45371176D-01 -0.28530613D-01 -0.45197284D-02 -0.47314540D-01
 -0.29752652D-01 -0.47133200D-02  0.17730975D-04  0.11149713D-04  0.17663018D-05
  0.15250725D-01  0.14749837D-01  0.45968799D-02  0.15246204D-01  0.14745465D-01
  0.45955174D-02  0.36174612D-01  0.34986510D-01  0.10903767D-01  0.36159931D-01
  0.34972311D-01  0.10899342D-01 -0.30975409D-02 -0.29958067D-02 -0.93366211D-03
MO    9     MO 0.0        OCC NO =    2.0000000  ORB. ENERGY =   -0.746868
  0.12957896D+00  0.12532312D+00  0.39057744D-01  0.30166425D-01 -0.40350031D-01
 -0.30452770D-01 -0.23944200D+00 -0.15056756D+00 -0.23852431D-01 -0.70913850D-01
 -0.44592532D-01 -0.70642062D-02  0.54310884D-03  0.34152141D-03  0.54102729D-04
  0.15944966D+00  0.15421277D+00  0.48061385D-01  0.35615038D-01 -0.47637991D-01
 -0.35953102D-01 -0.48989202D-01 -0.30805725D-01 -0.48801444D-02 -0.39341550D-01
 -0.24739023D-01 -0.39190768D-02  0.22612373D-03  0.14219267D-03  0.22525708D-04
  0.32874050D+00  0.31794350D+00  0.99089101D-01  0.67519318D-01 -0.90312542D-01
 -0.68160223D-01  0.29509121D-01  0.18556127D-01  0.29396023D-02 -0.15954648D+00
 -0.10032711D+00 -0.15893500D-01  0.12790332D-02  0.80429043D-03  0.12741312D-03
 -0.44416584D+00 -0.42957786D+00 -0.13388066D+00 -0.78249539D-01  0.10466508D+00
  0.78992297D-01  0.11277388D+00  0.70915244D-01  0.11234166D-01 -0.42486970D-01
 -0.26716947D-01 -0.42324132D-02  0.39301229D-03  0.24713668D-03  0.39150602D-04
 -0.23846502D+00 -0.23063298D+00 -0.71878227D-01 -0.43379096D-01  0.58023045D-01
  0.43790857D-01 -0.99523170D-01 -0.62582840D-01 -0.99141733D-02 -0.12969771D+00
 -0.81557400D-01 -0.12920062D-01  0.31130189D-03  0.19575498D-03  0.31010878D-04
  0.43095405D-01  0.41679999D-01  0.12989835D-01  0.43089376D-01  0.41674168D-01
  0.12988018D-01 -0.33447159D-01 -0.32348636D-01 -0.10081657D-01 -0.33428217D-01
 -0.32330316D-01 -0.10075947D-01 -0.30686323D-01 -0.29678476D-01 -0.92494846D-02
MO   10     MO 0.0        OCC NO =    2.0000000  ORB. ENERGY =   -0.596920
  0.11134638D+00  0.10768937D+00  0.33562073D-01  0.27614663D-01 -0.36936843D-01
 -0.27876787D-01 -0.70059133D+00 -0.44055063D+00 -0.69790622D-01 -0.17089202D-01
 -0.10746149D-01 -0.17023705D-02  0.12209710D-02  0.76777932D-03  0.12162914D-03
  0.23895778D+00  0.23110957D+00  0.72026757D-01  0.58692451D-01 -0.78505894D-01
 -0.59249569D-01 -0.21757633D-02 -0.13681784D-02 -0.21674244D-03 -0.17840792D+00
 -0.11218769D+00 -0.17772415D-01 -0.41848942D-03 -0.26315738D-03 -0.41688550D-04
 -0.60222692D-01 -0.58244766D-01 -0.18152349D-01 -0.13596653D-01  0.18186622D-01
  0.13725715D-01 -0.66314467D-01 -0.41700317D-01 -0.66060307D-02  0.20173356D+00
  0.12685548D+00  0.20096039D-01 -0.16744615D-02 -0.10529463D-02 -0.16680439D-03
  0.23231779D+00  0.22468765D+00  0.70025326D-01  0.44990427D-01 -0.60178331D-01
 -0.45417484D-01  0.14004677D+00  0.88065168D-01  0.13951002D-01  0.13421456D+00
  0.84397717D-01  0.13370016D-01 -0.10733369D-02 -0.67494304D-03 -0.10692232D-03
 -0.34679846D+00 -0.33540837D+00 -0.10453214D+00 -0.71870890D-01  0.96133121D-01
  0.72553101D-01  0.61143751D-01  0.38448831D-01  0.60909409D-02 -0.13931622D+00
 -0.87605775D-01 -0.13878227D-01 -0.54081512D-03 -0.34007906D-03 -0.53874237D-04
 -0.42671039D-01 -0.41269571D-01 -0.12861923D-01 -0.42841927D-01 -0.41434847D-01
 -0.12913432D-01  0.23863886D-01  0.23080112D-01  0.71930627D-02  0.23785980D-01
  0.23004765D-01  0.71695803D-02 -0.78545224D-01 -0.75965522D-01 -0.23675135D-01
MO   11     MO 0.0        OCC NO =    2.0000000  ORB. ENERGY =   -0.525268
 -0.27098570D-03 -0.26208557D-03 -0.81680624D-04 -0.79616172D-04  0.10649306D-03
  0.80371902D-04  0.34711940D-02  0.21827800D-02  0.34578902D-03 -0.31118447D-04
 -0.19568114D-04 -0.30999181D-05  0.17123811D+00  0.10767912D+00  0.17058182D-01
  0.22091124D-02  0.21365573D-02  0.66587159D-03  0.58092796D-03 -0.77703808D-03
 -0.58644223D-03 -0.28885998D-02 -0.18164290D-02 -0.28775288D-03 -0.20684646D-02
 -0.13007060D-02 -0.20605369D-03  0.18927178D+00  0.11901918D+00  0.18854637D-01
  0.27701891D-03  0.26792063D-03  0.83499158D-04  0.62477057D-04 -0.83568112D-04
 -0.63070100D-04  0.39226083D-03  0.24666414D-03  0.39075744D-04  0.41055008D-02
  0.25816491D-02  0.40897659D-03  0.45368418D+00  0.28528879D+00  0.45194537D-01
  0.35569183D-03  0.34400966D-03  0.10721278D-03  0.72703534D-04 -0.97246850D-04
 -0.73393649D-04  0.72616946D-03  0.45663484D-03  0.72338631D-04  0.37190487D-02
  0.23386376D-02  0.37047949D-03  0.34949987D+00  0.21977490D+00  0.34816036D-01
 -0.11875577D-02 -0.11485541D-02 -0.35795414D-03 -0.23231555D-03  0.31074082D-03
  0.23452073D-03 -0.20863069D-02 -0.13119258D-02 -0.20783109D-03  0.31166288D-03
  0.19598198D-03  0.31046839D-04  0.16838014D+00  0.10588195D+00  0.16773480D-01
 -0.65953562D-01 -0.63787414D-01 -0.19879751D-01  0.65382006D-01  0.63234630D-01
  0.19707472D-01 -0.69936557D-01 -0.67639593D-01 -0.21080307D-01  0.70010676D-01
  0.67711278D-01  0.21102648D-01  0.32935404D-03  0.31853689D-03  0.99274036D-04
MO   12     MO 0.0        OCC NO =    2.0000000  ORB. ENERGY =   -0.495754
  0.30533641D-01  0.29530808D-01  0.92034629D-02  0.92177816D-02 -0.12329528D-01
 -0.93052784D-02 -0.60599691D+00 -0.38106712D+00 -0.60367434D-01  0.63086349D-01
  0.39670389D-01  0.62844561D-02  0.36081858D-02  0.22689241D-02  0.35943569D-03
 -0.21313658D+00 -0.20613642D+00 -0.64243717D-01 -0.57359924D-01  0.76723532D-01
  0.57904394D-01  0.45146030D+00  0.28389035D+00  0.44973001D-01  0.25776065D+00
  0.16208681D+00  0.25677275D-01  0.16286134D-02  0.10241158D-02  0.16223715D-03
 -0.11051668D+00 -0.10688692D+00 -0.33311985D-01 -0.25823019D-01  0.34540374D-01
  0.26068136D-01 -0.10942811D+00 -0.68811330D-01 -0.10900871D-01 -0.94034940D-01
 -0.59131694D-01 -0.93674537D-02  0.33495979D-02  0.21063171D-02  0.33367601D-03
  0.90293402D-02  0.87327847D-02  0.27216276D-02  0.20656676D-02 -0.27629972D-02
 -0.20852752D-02 -0.14623496D+00 -0.91956467D-01 -0.14567449D-01 -0.26936427D+00
 -0.16938348D+00 -0.26833190D-01  0.36584529D-02  0.23005334D-02  0.36444313D-03
  0.12127014D+00  0.11728720D+00  0.36553298D-01  0.22892376D-01 -0.30620403D-01
 -0.23109675D-01  0.38815563D+00  0.24408267D+00  0.38666796D-01 -0.63694892D-01
 -0.40053057D-01 -0.63450772D-02  0.11776630D-02  0.74054610D-03  0.11731494D-03
  0.36578782D-01  0.35377405D-01  0.11025592D-01  0.37506589D-01  0.36274740D-01
  0.11305252D-01 -0.23386920D-02 -0.22618811D-02 -0.70492953D-03 -0.15567506D-02
 -0.15056214D-02 -0.46923642D-03 -0.61315664D-01 -0.59301840D-01 -0.18481793D-01
MO   13     MO 0.0        OCC NO =    2.0000000  ORB. ENERGY =   -0.465305
 -0.31012331D+00 -0.29993777D+00 -0.93477501D-01 -0.83660442D-01  0.11190260D+00
  0.84454561D-01 -0.68193341D-01 -0.42881803D-01 -0.67931980D-02 -0.67146907D+00
 -0.42223777D+00 -0.66889557D-01 -0.47634200D-03 -0.29953663D-03 -0.47451635D-04
 -0.42438638D+00 -0.41044803D+00 -0.12791872D+00 -0.11789544D+00  0.15769467D+00
  0.11901452D+00 -0.30211823D+00 -0.18998005D+00 -0.30096031D-01  0.68484814D+00
  0.43065089D+00  0.68222336D-01  0.95513590D-03  0.60061509D-03  0.95147521D-04
  0.35398955D-01  0.34236328D-01  0.10669968D-01  0.90677446D-02 -0.12128841D-01
 -0.91538172D-02 -0.87285715D-01 -0.54887600D-01 -0.86951179D-02  0.19990381D+00
  0.12570488D+00  0.19913765D-01 -0.12193720D-03 -0.76677384D-04 -0.12146986D-04
  0.17723047D-01  0.17140959D-01  0.53420883D-02  0.58979385D-02 -0.78889692D-02
 -0.59539227D-02  0.15526007D+00  0.97631697D-01  0.15466501D-01 -0.31044224D-01
 -0.19521441D-01 -0.30925242D-02 -0.29740692D-03 -0.18701745D-03 -0.29626706D-04
  0.19339752D+00  0.18704566D+00  0.58293962D-01  0.40036902D-01 -0.53552591D-01
 -0.40416939D-01 -0.18476872D+00 -0.11618753D+00 -0.18406057D-01 -0.21221514D+00
 -0.13344657D+00 -0.21140179D-01  0.20864497D-03  0.13120156D-03  0.20784531D-04
  0.37449886D-02  0.36219900D-02  0.11288161D-02  0.33732497D-02  0.32624602D-02
  0.10167664D-02  0.22456024D-01  0.21718489D-01  0.67687042D-02  0.23022949D-01
  0.22266794D-01  0.69395871D-02 -0.44118896D-01 -0.42669876D-01 -0.13298336D-01
MO   14     MO 0.0        OCC NO =    2.0000000  ORB. ENERGY =   -0.432321
  0.17785321D-02  0.17201188D-02  0.53608591D-03  0.48405592D-03 -0.64746390D-03
 -0.48865066D-03  0.59506470D-02  0.37419265D-02  0.59278403D-03  0.19617019D-02
  0.12335708D-02  0.19541834D-03  0.57478833D+00  0.36144233D+00  0.57258537D-01
  0.11924894D-02  0.11533239D-02  0.35944067D-03  0.33277956D-03 -0.44511955D-03
 -0.33593837D-03  0.77805319D-03  0.48926073D-03  0.77507119D-04 -0.27194999D-02
 -0.17100945D-02 -0.27090770D-03  0.51354244D+00  0.32292927D+00  0.51157422D-01
  0.64315631D-03  0.62203278D-03  0.19386045D-03  0.18182166D-03 -0.24320115D-03
 -0.18354754D-03 -0.59438222D-02 -0.37376349D-02 -0.59210416D-03  0.41879258D-02
  0.26334801D-02  0.41718750D-03 -0.46646833D+00 -0.29332781D+00 -0.46468053D-01
  0.54036084D-03  0.52261348D-03  0.16287579D-03  0.16646456D-03 -0.22265979D-03
 -0.16804467D-03  0.48276347D-02  0.30357462D-02  0.48091321D-03 -0.34728520D-02
 -0.21838225D-02 -0.34595418D-03  0.14577838D+00  0.91669360D-01  0.14521967D-01
 -0.75080824D-03 -0.72614904D-03 -0.22630894D-03 -0.12915999D-03  0.17276192D-03
  0.13038600D-03 -0.34493466D-03 -0.21690417D-03 -0.34361265D-04  0.35080974D-03
  0.22059858D-03  0.34946522D-04  0.36749368D+00  0.23108989D+00  0.36608521D-01
 -0.36163707D-01 -0.34975963D-01 -0.10900480D-01  0.37465530D-01  0.36235029D-01
  0.11292876D-01  0.80448393D-01  0.77806184D-01  0.24248789D-01 -0.78646687D-01
 -0.76063652D-01 -0.23705718D-01  0.69238094D-03  0.66964071D-03  0.20869776D-03
MO   15     MO 0.0        OCC NO =    2.0000000  ORB. ENERGY =   -0.420283
  0.17585691D+00  0.17008115D+00  0.53006864D-01  0.48283156D-01 -0.64582622D-01
 -0.48741468D-01  0.26387717D+00  0.16593304D+00  0.26286582D-01  0.30328329D+00
  0.19071267D+00  0.30212092D-01 -0.86117679D-02 -0.54153108D-02 -0.85787621D-03
  0.90314693D-01  0.87348439D-01  0.27222693D-01  0.25160378D-01 -0.33654038D-01
 -0.25399204D-01  0.68169093D-01  0.42866555D-01  0.67907826D-02 -0.16764308D+00
 -0.10541847D+00 -0.16700056D-01 -0.74617788D-02 -0.46921667D-02 -0.74331804D-03
  0.57062942D-01  0.55188794D-01  0.17199936D-01  0.15571498D-01 -0.20828136D-01
 -0.15719305D-01 -0.35122010D+00 -0.22085662D+00 -0.34987400D-01  0.48812296D+00
  0.30694482D+00  0.48625216D-01  0.40845988D-02  0.25685054D-02  0.40689440D-03
  0.15233961D-01  0.14733624D-01  0.45918271D-02  0.64578375D-02 -0.86378793D-02
 -0.65191364D-02  0.28465581D+00  0.17899921D+00  0.28356483D-01 -0.29683754D+00
 -0.18665941D+00 -0.29569986D-01 -0.10171278D-02 -0.63959726D-03 -0.10132295D-03
 -0.38773371D-01 -0.37499916D-01 -0.11687086D-01 -0.62880956D-02  0.84108358D-02
  0.63477833D-02  0.12413583D-02  0.78059941D-03  0.12366006D-03  0.47276091D-01
  0.29728475D-01  0.47094899D-02 -0.48897142D-02 -0.30747835D-02 -0.48709737D-03
  0.51078902D-01  0.49401290D-01  0.15396224D-01  0.49546438D-01  0.47919158D-01
  0.14934308D-01  0.53677528D-01  0.51914568D-01  0.16179503D-01  0.56310641D-01
  0.54461200D-01  0.16973177D-01  0.49894388D-01  0.48255680D-01  0.15039188D-01
MO   16     MO 0.0        OCC NO =    2.0000000  ORB. ENERGY =   -0.380509
 -0.76592438D-03 -0.74076872D-03 -0.23086525D-03 -0.21284265D-03  0.28469424D-03
  0.21486299D-03 -0.16432886D-02 -0.10333440D-02 -0.16369904D-03 -0.10447651D-02
 -0.65697632D-03 -0.10407609D-03 -0.61063161D+00 -0.38398154D+00 -0.60829128D-01
 -0.22942150D-03 -0.22188649D-03 -0.69152327D-04 -0.61541813D-04  0.82317146D-04
  0.62125978D-04 -0.13967225D-02 -0.87829660D-03 -0.13913694D-03  0.62327354D-03
  0.39193113D-03  0.62088476D-04 -0.55259688D+00 -0.34748775D+00 -0.55047898D-01
  0.16040653D-03  0.15513821D-03  0.48349803D-04  0.46819717D-04 -0.62625153D-04
 -0.47264138D-04 -0.16338648D-02 -0.10274180D-02 -0.16276028D-03 -0.10080957D-02
 -0.63391761D-03 -0.10042320D-03 -0.27691538D+00 -0.17413182D+00 -0.27585406D-01
  0.16212483D-03  0.15680007D-03  0.48867734D-04  0.49710048D-04 -0.66491205D-04
 -0.50181905D-04  0.20807655D-03  0.13084412D-03  0.20727907D-04  0.75044591D-03
  0.47190053D-03  0.74756972D-04  0.33144844D+00  0.20842368D+00  0.33017812D-01
  0.11640747D-03  0.11258424D-03  0.35087590D-04  0.22232935D-04 -0.29738346D-04
 -0.22443973D-04 -0.86427058D-03 -0.54347653D-03 -0.86095814D-04  0.13897546D-03
  0.87391496D-04  0.13844281D-04 -0.29490031D+00 -0.18544123D+00 -0.29377006D-01
 -0.87977799D-01 -0.85088297D-01 -0.26518306D-01  0.88353601D-01  0.85451757D-01
  0.26631580D-01  0.57081436D-01  0.55206680D-01  0.17205511D-01 -0.56772584D-01
 -0.54907972D-01 -0.17112417D-01 -0.16354136D-03 -0.15817008D-03 -0.49294706D-04
MO   17     MO 0.0        OCC NO =    2.0000000  ORB. ENERGY =   -0.359648
  0.32877202D+00  0.31797398D+00  0.99098602D-01  0.94008623D-01 -0.12574413D+00
 -0.94900969D-01  0.96438074D-02  0.60642849D-02  0.96068461D-03  0.88472882D+00
  0.55634122D+00  0.88133797D-01  0.93011754D-03  0.58488287D-03  0.92655273D-04
 -0.22108147D+00 -0.21382037D+00 -0.66638471D-01 -0.66189955D-01  0.88534411D-01
  0.66818241D-01  0.22320385D+00  0.14035657D+00  0.22234839D-01  0.80638160D+00
  0.50707439D+00  0.80329103D-01 -0.37216933D-03 -0.23403006D-03 -0.37074293D-04
  0.49710802D-01  0.48078123D-01  0.14983851D-01  0.12543671D-01 -0.16778173D-01
 -0.12662737D-01  0.15069334D+00  0.94760018D-01  0.15011579D-01  0.38827440D-01
  0.24415736D-01  0.38678628D-02 -0.10361868D-02 -0.65158208D-03 -0.10322155D-03
 -0.64412766D-01 -0.62297223D-01 -0.19415323D-01 -0.15661463D-01  0.20948472D-01
  0.15810124D-01  0.94262709D-01  0.59274921D-01  0.93901434D-02  0.18885471D+00
  0.11875691D+00  0.18813090D-01 -0.35090411D-03 -0.22065792D-03 -0.34955922D-04
 -0.59867464D-03 -0.57901205D-03 -0.18045276D-03 -0.17296820D-02  0.23135894D-02
  0.17461005D-02  0.35308338D-01  0.22202831D-01  0.35173014D-02 -0.26877297D+00
 -0.16901166D+00 -0.26774286D-01 -0.32644689D-03 -0.20527856D-03 -0.32519573D-04
 -0.24739598D-01 -0.23927062D-01 -0.74570202D-02 -0.24304842D-01 -0.23506585D-01
 -0.73259759D-02 -0.12828795D-02 -0.12407452D-02 -0.38668607D-03 -0.15597141D-02
 -0.15084876D-02 -0.47012968D-03  0.71213611D-01  0.68874704D-01  0.21465237D-01
MO   18     MO 0.0        OCC NO =    2.0000000  ORB. ENERGY =   -0.264312
 -0.17047477D-03 -0.16487578D-03 -0.51384578D-04 -0.46684369D-04  0.62444115D-04
  0.47127505D-04  0.30281020D-02  0.19041518D-02  0.30164964D-03 -0.22091633D-02
 -0.13891811D-02 -0.22006963D-03  0.13294112D+01  0.83596942D+00  0.13243160D+00
  0.80598469D-04  0.77951330D-04  0.24294025D-04  0.24393396D-04 -0.32628138D-04
 -0.24624943D-04 -0.72873068D-04 -0.45824541D-04 -0.72593771D-05  0.49179166D-04
  0.30925179D-04  0.48990680D-05 -0.97901711D+00 -0.61563223D+00 -0.97526488D-01
  0.65238438D-03  0.63095777D-03  0.19664198D-03  0.17346751D-03 -0.23202680D-03
 -0.17511409D-03  0.11584687D-02  0.72847622D-03  0.11540287D-03  0.12038164D-02
  0.75699206D-03  0.11992026D-03  0.21757038D-01  0.13681409D-01  0.21673651D-02