 opt histidine pbe0
GAUSSIAN             64 MOL ORBITALS    192 PRIMITIVES       20 NUCLEI
  O    1    (CENTRE  1)   5.80537399  1.57588092  0.41877929  CHARGE =  8.0
  O    2    (CENTRE  2)   1.88525587  3.37065126  0.11200996  CHARGE =  8.0
  N    3    (CENTRE  3)  -2.49107269  1.50960198 -0.02816555  CHARGE =  7.0
  N    4    (CENTRE  4)   4.67935262 -2.95542329 -0.86173341  CHARGE =  7.0
  N    5    (CENTRE  5)  -6.48643311 -0.08349346 -0.28782585  CHARGE =  7.0
  C    6    (CENTRE  6)   0.22197017 -2.27723464  1.01814753  CHARGE =  6.0
  C    7    (CENTRE  7)   2.38495858 -1.30767349 -0.76520481  CHARGE =  6.0
  C    8    (CENTRE  8)  -2.31248435 -1.07177827  0.46113179  CHARGE =  6.0
  C    9    (CENTRE  9)   3.24136951  1.42317896 -0.05048591  CHARGE =  6.0
  C   10    (CENTRE 10)  -4.73283976 -2.00539271  0.29575032  CHARGE =  6.0
  C   11    (CENTRE 11)  -5.01978865  2.00201411 -0.46713400  CHARGE =  6.0
  H   12    (CENTRE 12)   0.78735119 -1.97279286  2.99703555  CHARGE =  1.0
  H   13    (CENTRE 13)   0.05195919 -4.32690538  0.74327059  CHARGE =  1.0
  H   14    (CENTRE 14)   1.62175206 -1.19965311 -2.70355561  CHARGE =  1.0
  H   15    (CENTRE 15)  -0.80993421  2.66596645 -0.05917326  CHARGE =  1.0
  H   16    (CENTRE 16)  -5.34469419 -3.95056102  0.56129686  CHARGE =  1.0
  H   17    (CENTRE 17)   4.00361896 -4.72872399 -1.43651460  CHARGE =  1.0
  H   18    (CENTRE 18)   5.20438672 -3.26524820  1.02549205  CHARGE =  1.0
  H   19    (CENTRE 19)  -5.69716091  3.89792810 -0.91008039  CHARGE =  1.0
  H   20    (CENTRE 20)   6.04564155  3.43425218  0.82675894  CHARGE =  1.0
CENTRE ASSIGNMENTS    1  1  1  1  1  1  1  1  1  1  1  1  1  1  1  2  2  2  2  2
CENTRE ASSIGNMENTS    2  2  2  2  2  2  2  2  2  2  3  3  3  3  3  3  3  3  3  3
CENTRE ASSIGNMENTS    3  3  3  3  3  4  4  4  4  4  4  4  4  4  4  4  4  4  4  4
CENTRE ASSIGNMENTS    5  5  5  5  5  5  5  5  5  5  5  5  5  5  5  6  6  6  6  6
CENTRE ASSIGNMENTS    6  6  6  6  6  6  6  6  6  6  7  7  7  7  7  7  7  7  7  7
CENTRE ASSIGNMENTS    7  7  7  7  7  8  8  8  8  8  8  8  8  8  8  8  8  8  8  8
CENTRE ASSIGNMENTS    9  9  9  9  9  9  9  9  9  9  9  9  9  9  9 10 10 10 10 10
CENTRE ASSIGNMENTS   10 10 10 10 10 10 10 10 10 10 11 11 11 11 11 11 11 11 11 11
CENTRE ASSIGNMENTS   11 11 11 11 11 12 12 12 13 13 13 14 14 14 15 15 15 16 16 16
CENTRE ASSIGNMENTS   17 17 17 18 18 18 19 19 19 20 20 20
TYPE ASSIGNMENTS      1  1  1  1  1  1  2  2  2  3  3  3  4  4  4  1  1  1  1  1
TYPE ASSIGNMENTS      1  2  2  2  3  3  3  4  4  4  1  1  1  1  1  1  2  2  2  3
TYPE ASSIGNMENTS      3  3  4  4  4  1  1  1  1  1  1  2  2  2  3  3  3  4  4  4
TYPE ASSIGNMENTS      1  1  1  1  1  1  2  2  2  3  3  3  4  4  4  1  1  1  1  1
TYPE ASSIGNMENTS      1  2  2  2  3  3  3  4  4  4  1  1  1  1  1  1  2  2  2  3
TYPE ASSIGNMENTS      3  3  4  4  4  1  1  1  1  1  1  2  2  2  3  3  3  4  4  4
TYPE ASSIGNMENTS      1  1  1  1  1  1  2  2  2  3  3  3  4  4  4  1  1  1  1  1
TYPE ASSIGNMENTS      1  2  2  2  3  3  3  4  4  4  1  1  1  1  1  1  2  2  2  3
TYPE ASSIGNMENTS      3  3  4  4  4  1  1  1  1  1  1  1  1  1  1  1  1  1  1  1
TYPE ASSIGNMENTS      1  1  1  1  1  1  1  1  1  1  1  1
EXPONENTS  0.1307093D+03 0.2380887D+02 0.6443608D+01 0.5033151D+01 0.1169596D+01
EXPONENTS  0.3803890D+00 0.5033151D+01 0.1169596D+01 0.3803890D+00 0.5033151D+01
EXPONENTS  0.1169596D+01 0.3803890D+00 0.5033151D+01 0.1169596D+01 0.3803890D+00
EXPONENTS  0.1307093D+03 0.2380887D+02 0.6443608D+01 0.5033151D+01 0.1169596D+01
EXPONENTS  0.3803890D+00 0.5033151D+01 0.1169596D+01 0.3803890D+00 0.5033151D+01
EXPONENTS  0.1169596D+01 0.3803890D+00 0.5033151D+01 0.1169596D+01 0.3803890D+00
EXPONENTS  0.9910617D+02 0.1805231D+02 0.4885660D+01 0.3780456D+01 0.8784966D+00
EXPONENTS  0.2857144D+00 0.3780456D+01 0.8784966D+00 0.2857144D+00 0.3780456D+01
EXPONENTS  0.8784966D+00 0.2857144D+00 0.3780456D+01 0.8784966D+00 0.2857144D+00
EXPONENTS  0.9910617D+02 0.1805231D+02 0.4885660D+01 0.3780456D+01 0.8784966D+00
EXPONENTS  0.2857144D+00 0.3780456D+01 0.8784966D+00 0.2857144D+00 0.3780456D+01
EXPONENTS  0.8784966D+00 0.2857144D+00 0.3780456D+01 0.8784966D+00 0.2857144D+00
EXPONENTS  0.9910617D+02 0.1805231D+02 0.4885660D+01 0.3780456D+01 0.8784966D+00
EXPONENTS  0.2857144D+00 0.3780456D+01 0.8784966D+00 0.2857144D+00 0.3780456D+01
EXPONENTS  0.8784966D+00 0.2857144D+00 0.3780456D+01 0.8784966D+00 0.2857144D+00
EXPONENTS  0.7161684D+02 0.1304510D+02 0.3530512D+01 0.2941249D+01 0.6834831D+00
EXPONENTS  0.2222899D+00 0.2941249D+01 0.6834831D+00 0.2222899D+00 0.2941249D+01
EXPONENTS  0.6834831D+00 0.2222899D+00 0.2941249D+01 0.6834831D+00 0.2222899D+00
EXPONENTS  0.7161684D+02 0.1304510D+02 0.3530512D+01 0.2941249D+01 0.6834831D+00
EXPONENTS  0.2222899D+00 0.2941249D+01 0.6834831D+00 0.2222899D+00 0.2941249D+01
EXPONENTS  0.6834831D+00 0.2222899D+00 0.2941249D+01 0.6834831D+00 0.2222899D+00
EXPONENTS  0.7161684D+02 0.1304510D+02 0.3530512D+01 0.2941249D+01 0.6834831D+00
EXPONENTS  0.2222899D+00 0.2941249D+01 0.6834831D+00 0.2222899D+00 0.2941249D+01
EXPONENTS  0.6834831D+00 0.2222899D+00 0.2941249D+01 0.6834831D+00 0.2222899D+00
EXPONENTS  0.7161684D+02 0.1304510D+02 0.3530512D+01 0.2941249D+01 0.6834831D+00
EXPONENTS  0.2222899D+00 0.2941249D+01 0.6834831D+00 0.2222899D+00 0.2941249D+01
EXPONENTS  0.6834831D+00 0.2222899D+00 0.2941249D+01 0.6834831D+00 0.2222899D+00
EXPONENTS  0.7161684D+02 0.1304510D+02 0.3530512D+01 0.2941249D+01 0.6834831D+00
EXPONENTS  0.2222899D+00 0.2941249D+01 0.6834831D+00 0.2222899D+00 0.2941249D+01
EXPONENTS  0.6834831D+00 0.2222899D+00 0.2941249D+01 0.6834831D+00 0.2222899D+00
EXPONENTS  0.7161684D+02 0.1304510D+02 0.3530512D+01 0.2941249D+01 0.6834831D+00
EXPONENTS  0.2222899D+00 0.2941249D+01 0.6834831D+00 0.2222899D+00 0.2941249D+01
EXPONENTS  0.6834831D+00 0.2222899D+00 0.2941249D+01 0.6834831D+00 0.2222899D+00
EXPONENTS  0.3425251D+01 0.6239137D+00 0.1688554D+00 0.3425251D+01 0.6239137D+00
EXPONENTS  0.1688554D+00 0.3425251D+01 0.6239137D+00 0.1688554D+00 0.3425251D+01
EXPONENTS  0.6239137D+00 0.1688554D+00 0.3425251D+01 0.6239137D+00 0.1688554D+00
EXPONENTS  0.3425251D+01 0.6239137D+00 0.1688554D+00 0.3425251D+01 0.6239137D+00
EXPONENTS  0.1688554D+00 0.3425251D+01 0.6239137D+00 0.1688554D+00 0.3425251D+01
EXPONENTS  0.6239137D+00 0.1688554D+00
MO    1     MO 0.0        OCC NO =    2.0000007  ORB. ENERGY =    0.000000
 -0.29247034D-01 -0.28286458D-01 -0.88156536D-02 -0.28996143D-04  0.38784683D-04
  0.29271379D-04  0.26593273D-03  0.16722564D-03  0.26491350D-04 -0.18028894D-03
 -0.11337052D-03 -0.17959795D-04  0.13675402D-03  0.85994596D-04  0.13622989D-04
 -0.47364263D-01 -0.45808653D-01 -0.14276556D-01 -0.29582716D-04  0.39569273D-04
  0.29863521D-04  0.86169890D-04  0.54185939D-04  0.85839632D-05  0.34789015D-03
  0.21876266D-03  0.34655682D-04  0.17635774D-03  0.11089848D-03  0.17568182D-04
 -0.14307875D+00 -0.13837954D+00 -0.43126858D-01  0.37303032D-03 -0.49895819D-03
 -0.37657119D-03  0.83283161D-03  0.52370686D-03  0.82963966D-04  0.18306979D-04
  0.11511920D-04  0.18236815D-05  0.10600435D-03  0.66658380D-04  0.10559807D-04
  0.17672868D+00  0.17092428D+00  0.53269634D-01 -0.96894962D-04  0.12960484D-03
  0.97814706D-04 -0.13056243D-02 -0.82101159D-03 -0.13006203D-03 -0.51075052D-03
 -0.32117363D-03 -0.50879300D-04  0.96013323D-03  0.60375754D-03  0.95645338D-04
  0.33726283D+01  0.32618592D+01  0.10165790D+01 -0.27318836D-02  0.36541150D-02
  0.27578151D-02  0.20076629D-01  0.12624723D-01  0.19999683D-02  0.26798703D-02
  0.16851744D-02  0.26695993D-03  0.22437167D-02  0.14109093D-02  0.22351173D-03
 -0.26766313D-01 -0.25887212D-01 -0.80679133D-02 -0.33246390D-05  0.44469732D-05
  0.33561970D-05 -0.47431974D-03 -0.29826498D-03 -0.47250184D-04  0.21255098D-03
  0.13365776D-03  0.21173635D-04 -0.15581693D-03 -0.97981864D-04 -0.15521973D-04
 -0.81342336D-02 -0.78670766D-02 -0.24518242D-02  0.75994404D-04 -0.10164865D-03
 -0.76715756D-04 -0.11252372D-03 -0.70757934D-04 -0.11209245D-04  0.88510370D-04
  0.55657696D-04  0.88171141D-05  0.42384033D-04  0.26652218D-04  0.42221590D-05
 -0.16045295D-01 -0.15518310D-01 -0.48363795D-02  0.63025433D-04 -0.84301608D-04
 -0.63623681D-04 -0.13861192D-03 -0.87162896D-04 -0.13808067D-04  0.39821022D-03
  0.25040527D-03  0.39668402D-04 -0.73885907D-04 -0.46461441D-04 -0.73602728D-05
 -0.26007316D-03 -0.25153144D-03 -0.78391362D-04 -0.29927602D-04  0.40030585D-04
  0.30211680D-04  0.43883947D-04  0.27595404D-04  0.43715756D-05  0.66094622D-04
  0.41562072D-04  0.65841305D-05 -0.52007937D-04 -0.32703986D-04 -0.51808609D-05
  0.64417646D-01  0.62301943D-01  0.19416794D-01  0.76389786D-03 -0.10217751D-02
 -0.77114891D-03  0.37130354D-02  0.23348563D-02  0.36988047D-03 -0.24094979D-02
 -0.15151569D-02 -0.24002631D-03  0.92561322D-03  0.58205043D-03  0.92206568D-04
  0.51037019D+00  0.49360783D+00  0.15383600D+00 -0.33111284D-03  0.44289017D-03
  0.33425582D-03  0.41429530D-02  0.26052000D-02  0.41270746D-03  0.15548140D-02
  0.97770875D-03  0.15488549D-03  0.28680218D-03  0.18034891D-03  0.28570297D-04
 -0.31924104D-04 -0.30875603D-04 -0.96225769D-05  0.46154310D-04  0.44638439D-04
  0.13911852D-04 -0.15827222D-04 -0.15307400D-04 -0.47706480D-05  0.44217550D-03
  0.42765290D-03  0.13328073D-03  0.85606908D-04  0.82795275D-04  0.25803671D-04
 -0.81519786D-04 -0.78842388D-04 -0.24571728D-04 -0.86223119D-04 -0.83391247D-04
 -0.25989409D-04 -0.55903158D-03 -0.54067100D-03 -0.16850354D-03  0.17373158D-04
  0.16802562D-04  0.52366246D-05
MO    2     MO 0.0        OCC NO =    2.0000005  ORB. ENERGY =    0.000000
  0.27767366D+00  0.26855387D+00  0.83696511D-01  0.96387640D-04 -0.12892625D-03
 -0.97302568D-04 -0.12535289D-02 -0.78825262D-03 -0.12487246D-03  0.18187373D-02
  0.11436708D-02  0.18117667D-03  0.11455214D-03  0.72033458D-04  0.11411310D-04
 -0.23804731D+00 -0.23022899D+00 -0.71752321D-01  0.53660163D-04 -0.71774803D-04
 -0.54169515D-04 -0.32458106D-03 -0.20410528D-03 -0.32333705D-04  0.14827636D-02
  0.93240154D-03  0.14770807D-03  0.11229907D-03  0.70616667D-04  0.11186867D-04
 -0.33110609D-01 -0.32023139D-01 -0.99802137D-02  0.35209960D-04 -0.47096167D-04
 -0.35544179D-04 -0.21949079D-04 -0.13802170D-04 -0.21864956D-05 -0.16542124D-03
 -0.10402131D-03 -0.16478724D-04 -0.12494079D-03 -0.78566122D-04 -0.12446194D-04
  0.34132828D+01  0.33011785D+01  0.10288332D+01 -0.30805598D-02  0.41204977D-02
  0.31098011D-02 -0.16926001D-01 -0.10643524D-01 -0.16861130D-02 -0.88721252D-02
 -0.55790304D-02 -0.88381215D-03  0.13533024D-01  0.85099286D-02  0.13481157D-02
 -0.16670270D+00 -0.16122759D+00 -0.50247598D-01  0.15953820D-03 -0.21339523D-03
 -0.16105256D-03 -0.66504155D-03 -0.41819597D-03 -0.66249268D-04 -0.22789561D-03
 -0.14330688D-03 -0.22702217D-04 -0.33236095D-04 -0.20899749D-04 -0.33108713D-05
  0.80820406D-01  0.78165978D-01  0.24360921D-01 -0.18403946D-03  0.24616765D-03
  0.18578640D-03 -0.15528737D-03 -0.97648866D-04 -0.15469221D-04 -0.27978949D-03
 -0.17593914D-03 -0.27871715D-04  0.33714112D-03  0.21200339D-03  0.33584898D-04
 -0.90603952D-01 -0.87628198D-01 -0.27309882D-01  0.91967010D-03 -0.12301331D-02
 -0.92839977D-03 -0.35376103D-02 -0.22245443D-02 -0.35240519D-03  0.11034694D-02
  0.69389117D-03  0.10992402D-03  0.12369126D-02  0.77780381D-03  0.12321719D-03
 -0.11505195D+00 -0.11127324D+00 -0.34679008D-01  0.22931605D-03 -0.30672875D-03
 -0.23149276D-03  0.28357060D-03  0.17831680D-03  0.28248377D-04 -0.24678922D-03
 -0.15518768D-03 -0.24584336D-04  0.25305180D-03  0.15912576D-03  0.25208195D-04
 -0.15352534D+00 -0.14848303D+00 -0.46275675D-01  0.19704433D-03 -0.26356271D-03
 -0.19891471D-03 -0.46079304D-03 -0.28975903D-03 -0.45902698D-04 -0.31880954D-03
 -0.20047599D-03 -0.31758765D-04 -0.14297858D-03 -0.89908767D-04 -0.14243059D-04
 -0.67848189D-01 -0.65619815D-01 -0.20450830D-01  0.11051847D-03 -0.14782738D-03
 -0.11156753D-03 -0.25674433D-03 -0.16144772D-03 -0.25576032D-04 -0.22439886D-04
 -0.14110802D-04 -0.22353882D-05 -0.22189998D-03 -0.13953666D-03 -0.22104952D-04
 -0.47638153D-01 -0.46073547D-01 -0.14359112D-01  0.41130101D-04 -0.55014833D-04
 -0.41520515D-04 -0.13112577D-03 -0.82455403D-04 -0.13062321D-04 -0.11744395D-03
 -0.73851908D-04 -0.11699383D-04  0.69014936D-04  0.43398444D-04  0.68750426D-05
  0.97561856D-05  0.94357579D-05  0.29407136D-05 -0.42515529D-04 -0.41119168D-04
 -0.12815049D-04  0.29839356D-03  0.28859326D-03  0.89941915D-04  0.80163561D-04
  0.77530706D-04  0.24162935D-04  0.60344558D-04  0.58362630D-04  0.18189082D-04
 -0.17224520D-02 -0.16658806D-02 -0.51918223D-03 -0.16977139D-02 -0.16419550D-02
 -0.51172564D-03  0.45836501D-04  0.44331068D-04  0.13816058D-04 -0.98484612D-04
 -0.95250029D-04 -0.29685274D-04
MO    3     MO 0.0        OCC NO =    2.0000004  ORB. ENERGY =    0.000000
  0.17076582D+01  0.16515726D+01  0.51472305D+00  0.21147819D-03 -0.28286916D-03
 -0.21348558D-03 -0.42735444D-02 -0.26873194D-02 -0.42571654D-03  0.70562026D-02
  0.44371296D-02  0.70291587D-03  0.72943914D-03  0.45869091D-03  0.72664346D-04
  0.27488209D+01  0.26585399D+01  0.82855076D+00 -0.15690915D-02  0.20987866D-02
  0.15839856D-02  0.49182573D-02  0.30927321D-02  0.48994073D-03 -0.10850744D-01
 -0.68232392D-02 -0.10809157D-02 -0.13085745D-02 -0.82286677D-03 -0.13035592D-03
  0.37323437D+00  0.36097604D+00  0.11250046D+00 -0.82436418D-03  0.11026537D-02
  0.83218918D-03  0.17353869D-03  0.10912578D-03  0.17287357D-04  0.98025492D-04
  0.61641060D-04  0.97649795D-05 -0.37655641D-04 -0.23678877D-04 -0.37511320D-05
  0.17571915D+00  0.16994792D+00  0.52965342D-01 -0.26921671D-03  0.36009909D-03
  0.27177216D-03 -0.10713575D-02 -0.67369833D-03 -0.10672513D-03 -0.24450517D-03
 -0.15375141D-03 -0.24356807D-04  0.63390459D-03  0.39861621D-03  0.63147505D-04
 -0.23866438D-01 -0.23082580D-01 -0.71938320D-02  0.80778850D-04 -0.10804824D-03
 -0.81545617D-04 -0.35534339D-03 -0.22344946D-03 -0.35398149D-04 -0.14290596D-03
 -0.89863102D-04 -0.14235825D-04 -0.25385537D-04 -0.15963107D-04 -0.25288243D-05
 -0.14912533D-02 -0.14422752D-02 -0.44949420D-03  0.19399810D-04 -0.25948814D-04
 -0.19583957D-04  0.49287311D-03  0.30993184D-03  0.49098410D-04 -0.40036124D-05
 -0.25175789D-05 -0.39882680D-06  0.54091839D-04  0.34014400D-04  0.53884524D-05
 -0.91486156D-01 -0.88481427D-01 -0.27575796D-01  0.99919020D-03 -0.13364976D-02
 -0.10086747D-02 -0.14540396D-02 -0.91433911D-03 -0.14484668D-03 -0.32552922D-02
 -0.20470151D-02 -0.32428158D-03 -0.92464628D-03 -0.58144240D-03 -0.92110244D-04
  0.17398271D+00  0.16826850D+00  0.52441942D-01 -0.34129283D-03  0.45650674D-03
  0.34453244D-03 -0.11613557D-03 -0.73029165D-04 -0.11569047D-04 -0.23250923D-03
 -0.14620804D-03 -0.23161810D-04  0.33344430D-04  0.20967873D-04  0.33216633D-05
  0.16729601D+01  0.16180141D+01  0.50426434D+00 -0.29280757D-02  0.39165377D-02
  0.29558695D-02 -0.25521076D-03 -0.16048337D-03 -0.25423263D-04  0.24084059D-03
  0.15144703D-03  0.23991754D-04  0.30884712D-04  0.19421136D-04  0.30766342D-05
  0.74634956D-01  0.72183680D-01  0.22496500D-01 -0.10667860D-03  0.14269125D-03
  0.10769121D-03 -0.13791944D-03 -0.86727448D-04 -0.13739085D-04 -0.31181951D-04
 -0.19608048D-04 -0.31062442D-05 -0.18245008D-04 -0.11472951D-04 -0.18175081D-05
  0.25682089D+00  0.24838598D+00  0.77411061D-01 -0.51765747D-03  0.69240868D-03
  0.52257116D-03 -0.22477503D-03 -0.14134457D-03 -0.22391355D-04 -0.38238470D-03
 -0.24045376D-03 -0.38091915D-04  0.39732645D-04  0.24984953D-04  0.39580364D-05
  0.96505352D-05  0.93335775D-05  0.29088684D-05 -0.10977130D-03 -0.10616603D-03
 -0.33087313D-04  0.83502542D-04  0.80760023D-04  0.25169372D-04 -0.14516184D-02
 -0.14039422D-02 -0.43754745D-03 -0.66854706D-04 -0.64658962D-04 -0.20151374D-04
 -0.25962122D-03 -0.25109434D-03 -0.78255139D-04 -0.13153559D-03 -0.12721550D-03
 -0.39647513D-04 -0.28020759D-03 -0.27100458D-03 -0.84460292D-04 -0.10709020D-02
 -0.10357297D-02 -0.32279172D-03
MO    4     MO 0.0        OCC NO =    2.0000004  ORB. ENERGY =    0.000000
 -0.31639728D+00 -0.30600568D+00 -0.95368604D-01  0.38201477D-04 -0.51097562D-04
 -0.38564092D-04  0.11889946D-02  0.74767173D-03  0.11844376D-03 -0.11559666D-02
 -0.72690279D-03 -0.11515361D-03 -0.56175916D-04 -0.35324923D-04 -0.55960614D-05
 -0.73628683D-01 -0.71210457D-01 -0.22193189D-01  0.45209438D-04 -0.60471276D-04
 -0.45638574D-04 -0.13482629D-03 -0.84782391D-04 -0.13430955D-04  0.30802718D-03
  0.19369576D-03  0.30684662D-04  0.26401360D-04  0.16601884D-04  0.26300173D-05
  0.28596127D+00  0.27656929D+00  0.86194567D-01 -0.25833545D-03  0.34554453D-03
  0.26078761D-03 -0.79386056D-03 -0.49920083D-03 -0.79081798D-04  0.13866681D-02
  0.87197413D-03  0.13813535D-03 -0.37861712D-03 -0.23808460D-03 -0.37716601D-04
  0.16243606D+00  0.15710109D+00  0.48961547D-01 -0.17197643D-03  0.23003237D-03
  0.17360886D-03 -0.52602130D-03 -0.33077631D-03 -0.52400524D-04 -0.38095323D-03
 -0.23955361D-03 -0.37949317D-04  0.48603996D-03  0.30563497D-03  0.48417714D-04
  0.48911289D-01  0.47304870D-01  0.14742862D-01  0.31090613D-03 -0.41586207D-03
 -0.31385731D-03 -0.10771270D-02 -0.67732635D-03 -0.10729987D-03  0.20391852D-02
  0.12822944D-02  0.20313698D-03 -0.51474893D-03 -0.32368794D-03 -0.51277608D-04
 -0.88978576D-02 -0.86056205D-02 -0.26819960D-02  0.71851488D-03 -0.96107170D-03
 -0.72533515D-03  0.25917965D-02  0.16297912D-02  0.25818631D-03 -0.14058334D-02
 -0.88402574D-03 -0.14004453D-03  0.63192209D-03  0.39736957D-03  0.62950016D-04
 -0.20615799D-01 -0.19938703D-01 -0.62140228D-02  0.32159337D-04 -0.43015711D-04
 -0.32464599D-04 -0.83991489D-04 -0.52816102D-04 -0.83669579D-05  0.87568496D-04
  0.55065420D-04  0.87232877D-05  0.77784340D-04  0.48912880D-04  0.77486220D-05
  0.16517136D+01  0.15974655D+01  0.49786022D+00 -0.35402489D-02  0.47353689D-02
  0.35738535D-02 -0.50777054D-03 -0.31929974D-03 -0.50582444D-04  0.17064643D-02
  0.10730705D-02  0.16999240D-03 -0.38174705D-03 -0.24005279D-03 -0.38028395D-04
 -0.76034720D-01 -0.73537471D-01 -0.22918418D-01  0.94179358D-04 -0.12597250D-03
 -0.95073325D-04  0.27475196D-03  0.17277141D-03  0.27369894D-04 -0.15908327D-03
 -0.10003583D-03 -0.15847356D-04  0.98002023D-05  0.61626302D-05  0.97626416D-06
  0.20443725D+01  0.19772281D+01  0.61621563D+00 -0.45132706D-02  0.60368640D-02
  0.45561113D-02  0.45933075D-03  0.28883950D-03  0.45757030D-04  0.30699690D-02
  0.19304789D-02  0.30582029D-03 -0.48080000D-03 -0.30233994D-03 -0.47895727D-04
 -0.39608245D+00 -0.38307370D+00 -0.11938734D+00  0.12706995D-02 -0.16996632D-02
 -0.12827612D-02 -0.87642943D-03 -0.55112235D-03 -0.87307039D-04  0.19790336D-02
  0.12444695D-02  0.19714487D-03 -0.47709439D-03 -0.30000975D-03 -0.47526585D-04
 -0.90100708D-05 -0.87141482D-05 -0.27158194D-05 -0.68989340D-04 -0.66723487D-04
 -0.20794796D-04 -0.19795078D-04 -0.19144938D-04 -0.59666409D-05 -0.17550632D-03
 -0.16974208D-03 -0.52901191D-04 -0.22799799D-02 -0.22050973D-02 -0.68723253D-03
 -0.66526820D-04 -0.64341844D-04 -0.20052542D-04 -0.74014231D-04 -0.71583342D-04
 -0.22309401D-04  0.51646088D-03  0.49949848D-03  0.15567186D-03  0.12137113D-03
  0.11738488D-03  0.36583739D-04
MO    5     MO 0.0        OCC NO =    2.0000003  ORB. ENERGY =    0.000000
  0.37103667D+01  0.35885052D+01  0.11183803D+01 -0.94392005D-03  0.12625693D-02
  0.95287990D-03 -0.14749260D-01 -0.92747303D-02 -0.14692731D-02  0.13065800D-01
  0.82161258D-02  0.13015724D-02  0.19677820D-04  0.12373942D-04  0.19602402D-05
 -0.14500297D+01 -0.14024056D+01 -0.43706856D+00  0.77870203D-03 -0.10415769D-02
 -0.78609360D-03 -0.27090859D-02 -0.17035459D-02 -0.26987030D-03  0.57722758D-02
  0.36297619D-02  0.57501527D-03  0.71644545D-03  0.45052012D-03  0.71369957D-04
 -0.59098020D+00 -0.57157032D+00 -0.17813350D+00  0.11555046D-02 -0.15455808D-02
 -0.11664729D-02 -0.66069613D-04 -0.41546345D-04 -0.65816391D-05  0.65033784D-03
  0.40894989D-03  0.64784533D-04 -0.62897152D-04 -0.39551417D-04 -0.62656090D-05
 -0.29969848D+00 -0.28985533D+00 -0.90335245D-01  0.37832019D-03 -0.50603382D-03
 -0.38191127D-03  0.13154948D-02  0.82721843D-03  0.13104530D-03  0.15356208D-03
  0.96563957D-04  0.15297353D-04 -0.10439062D-02 -0.65643625D-03 -0.10399053D-03
  0.15621482D+00  0.15108417D+00  0.47086336D-01 -0.26116464D-03  0.34932880D-03
  0.26364366D-03  0.99340896D-03  0.62468221D-03  0.98960158D-04  0.73427079D-03
  0.46172917D-03  0.73145659D-04  0.38301037D-05  0.24084720D-05  0.38154242D-06
  0.34780220D-02  0.33637914D-02  0.10483469D-02 -0.20587803D-04  0.27537849D-04
  0.20783226D-04 -0.13856992D-03 -0.87136482D-04 -0.13803883D-04 -0.85260002D-04
 -0.53613777D-04 -0.84933231D-05 -0.78399136D-04 -0.49299481D-04 -0.78098660D-05
  0.21364412D-01  0.20662729D-01  0.64396701D-02 -0.32794894D-03  0.43865820D-03
  0.33106189D-03  0.10312585D-02  0.64848304D-03  0.10273061D-03  0.65289980D-03
  0.41056092D-03  0.65039747D-04  0.19592156D-03  0.12320073D-03  0.19517066D-04
 -0.48476109D-01 -0.46883982D-01 -0.14611689D-01  0.10728049D-04 -0.14349632D-04
 -0.10829882D-04  0.10222557D-04  0.64282182D-05  0.10183378D-05  0.77365554D-03
  0.48649537D-03  0.77069040D-04 -0.14876743D-03 -0.93548950D-04 -0.14819725D-04
 -0.35435630D+00 -0.34271799D+00 -0.10681023D+00  0.10202919D-02 -0.13647229D-02
 -0.10299767D-02 -0.39985753D-02 -0.25144115D-02 -0.39832502D-03  0.19197766D-02
  0.12072070D-02  0.19124188D-03 -0.30939889D-03 -0.19455832D-03 -0.30821307D-04
  0.16972345D+00  0.16414913D+00  0.51158115D-01 -0.44449470D-03  0.59454757D-03
  0.44871392D-03  0.36231759D-03  0.22783503D-03  0.36092896D-04  0.46607609D-03
  0.29308115D-03  0.46428979D-04 -0.13827863D-04 -0.86953313D-05 -0.13774866D-05
 -0.65463941D+00 -0.63313874D+00 -0.19732169D+00  0.14681172D-02 -0.19637254D-02
 -0.14820528D-02  0.32542134D-03  0.20463367D-03  0.32417412D-04  0.12257064D-02
  0.77075708D-03  0.12210087D-03 -0.18575164D-03 -0.11680562D-03 -0.18503972D-04
 -0.94780963D-05 -0.91668021D-05 -0.28568918D-05  0.19963526D-04  0.19307853D-04
  0.60174145D-05 -0.32738935D-04 -0.31663672D-04 -0.98681837D-05  0.11259434D-02
  0.10889634D-02  0.33938233D-03 -0.19965261D-03 -0.19309532D-03 -0.60179376D-04
  0.14745768D-03  0.14261464D-03  0.44446756D-04  0.71648063D-04  0.69294888D-04
  0.21596190D-04  0.74634299D-03  0.72183045D-03  0.22496302D-03 -0.10404444D-02
 -0.10062726D-02 -0.31361121D-03
MO    6     MO 0.0        OCC NO =    2.0000003  ORB. ENERGY =    0.000000
 -0.94994203D+00 -0.91874258D+00 -0.28633193D+00  0.42665253D-03 -0.57068223D-03
 -0.43070239D-03  0.41674377D-02  0.26205967D-02  0.41514654D-03 -0.31114407D-02
 -0.19565574D-02 -0.30995157D-03  0.17420950D-03  0.10954761D-03  0.17354182D-04
  0.74270379D+00  0.71831077D+00  0.22386609D+00 -0.54845420D-03  0.73360180D-03
  0.55366022D-03  0.11334807D-02  0.71276308D-03  0.11291365D-03 -0.30423660D-02
 -0.19131214D-02 -0.30307057D-03 -0.39888455D-03 -0.25082931D-03 -0.39735576D-04
 -0.13475353D+01 -0.13032775D+01 -0.40617468D+00  0.21704549D-02 -0.29031587D-02
 -0.21910572D-02  0.20620234D-05  0.12966557D-05  0.20541204D-06  0.18392141D-02
  0.11565472D-02  0.18321650D-03 -0.28558883D-03 -0.17958592D-03 -0.28449427D-04
  0.51019430D-01  0.49343771D-01  0.15378298D-01 -0.91029317D-04  0.12175907D-03
  0.91893383D-04 -0.35885782D-03 -0.22565942D-03 -0.35748244D-04  0.10970683D-03
  0.68986596D-04  0.10928636D-04  0.22147285D-03  0.13926807D-03  0.22062403D-04
  0.49047042D+00  0.47436164D+00  0.14783780D+00 -0.98932096D-03  0.13232967D-02
  0.99871177D-03  0.37139685D-02  0.23354431D-02  0.36997342D-03  0.20481631D-02
  0.12879399D-02  0.20403132D-03  0.14085795D-03  0.88575256D-04  0.14031809D-04
  0.41329370D-01  0.39971968D-01  0.12457516D-01 -0.33059213D-03  0.44219368D-03
  0.33373017D-03 -0.72047017D-03 -0.45305098D-03 -0.71770886D-04  0.22675041D-03
  0.14258675D-03  0.22588136D-04 -0.16481312D-03 -0.10363891D-03 -0.16418145D-04
 -0.28098157D-01 -0.27175314D-01 -0.84693585D-02  0.32938705D-03 -0.44058179D-03
 -0.33251365D-03 -0.46266739D-03 -0.29093767D-03 -0.46089415D-04 -0.85671697D-03
 -0.53872662D-03 -0.85343348D-04 -0.30444771D-03 -0.19144489D-03 -0.30328087D-04
 -0.47386196D+00 -0.45829866D+00 -0.14283167D+00  0.79766955D-03 -0.10669475D-02
 -0.80524117D-03  0.10541867D-03  0.66290086D-04  0.10501463D-04  0.15984304D-02
  0.10051359D-02  0.15923042D-03 -0.26169522D-03 -0.16456098D-03 -0.26069223D-04
  0.46930919D+00  0.45389542D+00  0.14145938D+00 -0.10094160D-02  0.13501754D-02
  0.10189975D-02  0.11540839D-02  0.72571890D-03  0.11496607D-03 -0.39125092D-03
 -0.24602908D-03 -0.38975140D-04  0.10767718D-03  0.67710298D-04  0.10726449D-04
  0.29545370D-01  0.28574995D-01  0.89055779D-02 -0.27376284D-03  0.36617992D-03
  0.27636145D-03  0.98809468D-03  0.62134045D-03  0.98430767D-04  0.82040994D-03
  0.51589579D-03  0.81726560D-04 -0.68387251D-05 -0.43003739D-05 -0.68125147D-06
 -0.22145017D+01 -0.21417697D+01 -0.66749605D+00  0.50750254D-02 -0.67882565D-02
 -0.51231985D-02  0.47937121D-03  0.30144148D-03  0.47753396D-04  0.38783548D-02
  0.24388136D-02  0.38634904D-03 -0.63698486D-03 -0.40055318D-03 -0.63454353D-04
 -0.35688838D-04 -0.34516690D-04 -0.10757345D-04 -0.16416730D-04 -0.15877546D-04
 -0.49483376D-05  0.47193191D-04  0.45643199D-04  0.14224992D-04  0.72863664D-03
  0.70470564D-03  0.21962597D-03 -0.74871761D-04 -0.72412707D-04 -0.22567878D-04
 -0.52622884D-04 -0.50894562D-04 -0.15861612D-04 -0.45364969D-05 -0.43875023D-05
 -0.13673928D-05  0.25104513D-02  0.24279992D-02  0.75670131D-03  0.16593732D-03
  0.16048735D-03  0.50016897D-04
MO    7     MO 0.0        OCC NO =    2.0000002  ORB. ENERGY =    0.000000
 -0.36822185D+00 -0.35612814D+00 -0.11098959D+00  0.65589654D-03 -0.87731461D-03
 -0.66212242D-03  0.27979419D-02  0.17594210D-02  0.27872184D-03 -0.84089328D-03
 -0.52877626D-03 -0.83767044D-04  0.35254822D-03  0.22169178D-03  0.35119703D-04
 -0.13156020D+01 -0.12723929D+01 -0.39654930D+00  0.10512873D-02 -0.14061817D-02
 -0.10612663D-02 -0.18199638D-02 -0.11444421D-02 -0.18129885D-03  0.52447735D-02
  0.32980543D-02  0.52246721D-03  0.66682311D-03  0.41931626D-03  0.66426741D-04
 -0.15765430D+01 -0.15247637D+01 -0.47520225D+00  0.33772060D-02 -0.45172859D-02
 -0.34092631D-02  0.28157099D-02  0.17705939D-02  0.28049182D-03  0.81583297D-03
  0.51301766D-03  0.81270617D-04  0.32099780D-03  0.20185203D-03  0.31976753D-04
 -0.86888598D-02 -0.84034869D-02 -0.26189998D-02 -0.13138424D-03  0.17573704D-03
  0.13263137D-03 -0.46840121D-03 -0.29454325D-03 -0.46660599D-04  0.40539504D-03
  0.25492328D-03  0.40384130D-04  0.80307120D-04  0.50499272D-04  0.79999331D-05
 -0.35639651D+00 -0.34469119D+00 -0.10742519D+00  0.10395648D-02 -0.13905019D-02
 -0.10494325D-02 -0.30551982D-02 -0.19211906D-02 -0.30434887D-03  0.77960013D-04
  0.49023348D-04  0.77661220D-05 -0.42350570D-03 -0.26631175D-03 -0.42188255D-04
  0.60315457D-01  0.58334484D-01  0.18180311D-01 -0.75402259D-03  0.10085661D-02
  0.76117990D-03 -0.14118824D-02 -0.88782955D-03 -0.14064712D-03  0.72010390D-03
  0.45282066D-03  0.71734400D-04 -0.67412303D-03 -0.42390665D-03 -0.67153936D-04
 -0.36224250D+00 -0.35034517D+00 -0.10918729D+00  0.14264073D-02 -0.19079350D-02
 -0.14399470D-02 -0.53916914D-03 -0.33904402D-03 -0.53710269D-04 -0.21034024D-02
 -0.13226759D-02 -0.20953408D-03 -0.50852561D-03 -0.31977455D-03 -0.50657661D-04
 -0.10841040D+01 -0.10484982D+01 -0.32677109D+00  0.28898356D-02 -0.38653886D-02
 -0.29172664D-02  0.24705946D-02  0.15535762D-02  0.24611257D-03  0.95036644D-03
  0.59761592D-03  0.94672402D-04  0.18975471D-03  0.11932285D-03  0.18902745D-04
  0.11265841D+01  0.10895831D+01  0.33957546D+00 -0.28740785D-02  0.38443121D-02
  0.29013597D-02 -0.36349132D-03 -0.22857310D-03 -0.36209819D-04  0.21901475D-02
  0.13772235D-02  0.21817534D-03  0.36597318D-03  0.23013375D-03  0.36457053D-04
  0.11929580D+01  0.11537770D+01  0.35958189D+00 -0.34863062D-02  0.46632162D-02
  0.35193988D-02  0.20007586D-02  0.12581307D-02  0.19930904D-03  0.22015199D-02
  0.13843748D-02  0.21930822D-03 -0.10567967D-03 -0.66454209D-04 -0.10527463D-04
  0.92001671D+00  0.88980011D+00  0.27731183D+00 -0.26957696D-02  0.36058097D-02
  0.27213583D-02  0.18446857D-02  0.11599879D-02  0.18376157D-03 -0.18709728D-02
 -0.11765179D-02 -0.18638020D-03  0.59676203D-03  0.37525998D-03  0.59447486D-04
 -0.50256596D-04 -0.48605992D-04 -0.15148365D-04 -0.14979291D-03 -0.14487318D-03
 -0.45150641D-04  0.34638977D-03  0.33501311D-03  0.10440895D-03  0.14398180D-02
  0.13925292D-02  0.43399054D-03 -0.13209147D-02 -0.12775312D-02 -0.39815068D-03
 -0.89139622D-05 -0.86211962D-05 -0.26868503D-05  0.39318365D-04  0.38027011D-04
  0.11851358D-04 -0.10334192D-02 -0.99947802D-03 -0.31149364D-03 -0.36495692D-04
 -0.35297045D-04 -0.11000547D-04
MO    8     MO 0.0        OCC NO =    2.0000001  ORB. ENERGY =    0.000000
  0.37743526D+00  0.36503895D+00  0.11376670D+00 -0.81892709D-03  0.10953811D-02
  0.82670048D-03 -0.35463447D-02 -0.22300367D-02 -0.35327528D-03  0.80977823D-03
  0.50921028D-03  0.80667464D-04 -0.50552181D-03 -0.31788568D-03 -0.50358432D-04
  0.23190952D+01  0.22429279D+01  0.69902265D+00 -0.20212596D-02  0.27035980D-02
  0.20404458D-02  0.29611030D-02  0.18620210D-02  0.29497541D-03 -0.94688608D-02
 -0.59542738D-02 -0.94325701D-03 -0.13859174D-02 -0.87150203D-03 -0.13806056D-03
 -0.88490841D+00 -0.85584489D+00 -0.26672947D+00  0.17118417D-02 -0.22897266D-02
 -0.17280908D-02  0.18928358D-02  0.11902660D-02  0.18855812D-03  0.38174277D-03
  0.24005010D-03  0.38027969D-04  0.22911945D-03  0.14407646D-03  0.22824132D-04
 -0.30022856D-01 -0.29036799D-01 -0.90495019D-02  0.26617047D-03 -0.35602450D-03
 -0.26869700D-03  0.80429361D-03  0.50576141D-03  0.80121104D-04 -0.51865554D-03
 -0.32614452D-03 -0.51666771D-04 -0.17416585D-03 -0.10952016D-03 -0.17349834D-04
 -0.14643314D+00 -0.14162376D+00 -0.44137941D-01  0.54415617D-03 -0.72785284D-03
 -0.54932139D-03 -0.16187932D-02 -0.10179406D-02 -0.16125890D-03  0.30681409D-03
  0.19293293D-03  0.30563818D-04 -0.27254969D-03 -0.17138656D-03 -0.27150511D-04
  0.18317327D+00  0.17715721D+00  0.55212164D-01 -0.59954617D-03  0.80194143D-03