 opt histidine b3lyp
GAUSSIAN             41 MOL ORBITALS    192 PRIMITIVES       20 NUCLEI
  O    1    (CENTRE  1)   5.87755063  1.62901865  0.30778218  CHARGE =  8.0
  O    2    (CENTRE  2)   1.88224120  3.39633186  0.16315517  CHARGE =  8.0
  N    3    (CENTRE  3)  -2.52146058  1.53117121  0.03300990  CHARGE =  7.0
  N    4    (CENTRE  4)   4.76613319 -2.99100393 -0.79607079  CHARGE =  7.0
  N    5    (CENTRE  5)  -6.55639912 -0.08414109 -0.33985837  CHARGE =  7.0
  C    6    (CENTRE  6)   0.20819839 -2.30973593  1.03664773  CHARGE =  6.0
  C    7    (CENTRE  7)   2.42024947 -1.33930435 -0.75206068  CHARGE =  6.0
  C    8    (CENTRE  8)  -2.34459289 -1.09113868  0.45931053  CHARGE =  6.0
  C    9    (CENTRE  9)   3.26353210  1.43846101 -0.05939574  CHARGE =  6.0
  C   10    (CENTRE 10)  -4.78267091 -2.03435833  0.22884983  CHARGE =  6.0
  C   11    (CENTRE 11)  -5.07129976  2.03260163 -0.44462841  CHARGE =  6.0
  H   12    (CENTRE 12)   0.77071658 -1.99929176  3.02956323  CHARGE =  1.0
  H   13    (CENTRE 13)   0.03889454 -4.37221975  0.75952541  CHARGE =  1.0
  H   14    (CENTRE 14)   1.68427898 -1.26589417 -2.71673098  CHARGE =  1.0
  H   15    (CENTRE 15)  -0.80180580  2.69013009  0.02329587  CHARGE =  1.0
  H   16    (CENTRE 16)  -5.39986514 -3.99792913  0.43872569  CHARGE =  1.0
  H   17    (CENTRE 17)   4.08802182 -4.78487259 -1.38689031  CHARGE =  1.0
  H   18    (CENTRE 18)   5.21639238 -3.31584696  1.13290253  CHARGE =  1.0
  H   19    (CENTRE 19)  -5.74888113  3.94906582 -0.85398599  CHARGE =  1.0
  H   20    (CENTRE 20)   6.09550026  3.52271893  0.71419093  CHARGE =  1.0
CENTRE ASSIGNMENTS    1  1  1  1  1  1  1  1  1  1  1  1  1  1  1  2  2  2  2  2
CENTRE ASSIGNMENTS    2  2  2  2  2  2  2  2  2  2  3  3  3  3  3  3  3  3  3  3
CENTRE ASSIGNMENTS    3  3  3  3  3  4  4  4  4  4  4  4  4  4  4  4  4  4  4  4
CENTRE ASSIGNMENTS    5  5  5  5  5  5  5  5  5  5  5  5  5  5  5  6  6  6  6  6
CENTRE ASSIGNMENTS    6  6  6  6  6  6  6  6  6  6  7  7  7  7  7  7  7  7  7  7
CENTRE ASSIGNMENTS    7  7  7  7  7  8  8  8  8  8  8  8  8  8  8  8  8  8  8  8
CENTRE ASSIGNMENTS    9  9  9  9  9  9  9  9  9  9  9  9  9  9  9 10 10 10 10 10
CENTRE ASSIGNMENTS   10 10 10 10 10 10 10 10 10 10 11 11 11 11 11 11 11 11 11 11
CENTRE ASSIGNMENTS   11 11 11 11 11 12 12 12 13 13 13 14 14 14 15 15 15 16 16 16
CENTRE ASSIGNMENTS   17 17 17 18 18 18 19 19 19 20 20 20
TYPE ASSIGNMENTS      1  1  1  1  1  1  2  2  2  3  3  3  4  4  4  1  1  1  1  1
TYPE ASSIGNMENTS      1  2  2  2  3  3  3  4  4  4  1  1  1  1  1  1  2  2  2  3
TYPE ASSIGNMENTS      3  3  4  4  4  1  1  1  1  1  1  2  2  2  3  3  3  4  4  4
TYPE ASSIGNMENTS      1  1  1  1  1  1  2  2  2  3  3  3  4  4  4  1  1  1  1  1
TYPE ASSIGNMENTS      1  2  2  2  3  3  3  4  4  4  1  1  1  1  1  1  2  2  2  3
TYPE ASSIGNMENTS      3  3  4  4  4  1  1  1  1  1  1  2  2  2  3  3  3  4  4  4
TYPE ASSIGNMENTS      1  1  1  1  1  1  2  2  2  3  3  3  4  4  4  1  1  1  1  1
TYPE ASSIGNMENTS      1  2  2  2  3  3  3  4  4  4  1  1  1  1  1  1  2  2  2  3
TYPE ASSIGNMENTS      3  3  4  4  4  1  1  1  1  1  1  1  1  1  1  1  1  1  1  1
TYPE ASSIGNMENTS      1  1  1  1  1  1  1  1  1  1  1  1
EXPONENTS  0.1307093D+03 0.2380887D+02 0.6443608D+01 0.5033151D+01 0.1169596D+01
EXPONENTS  0.3803890D+00 0.5033151D+01 0.1169596D+01 0.3803890D+00 0.5033151D+01
EXPONENTS  0.1169596D+01 0.3803890D+00 0.5033151D+01 0.1169596D+01 0.3803890D+00
EXPONENTS  0.1307093D+03 0.2380887D+02 0.6443608D+01 0.5033151D+01 0.1169596D+01
EXPONENTS  0.3803890D+00 0.5033151D+01 0.1169596D+01 0.3803890D+00 0.5033151D+01
EXPONENTS  0.1169596D+01 0.3803890D+00 0.5033151D+01 0.1169596D+01 0.3803890D+00
EXPONENTS  0.9910617D+02 0.1805231D+02 0.4885660D+01 0.3780456D+01 0.8784966D+00
EXPONENTS  0.2857144D+00 0.3780456D+01 0.8784966D+00 0.2857144D+00 0.3780456D+01
EXPONENTS  0.8784966D+00 0.2857144D+00 0.3780456D+01 0.8784966D+00 0.2857144D+00
EXPONENTS  0.9910617D+02 0.1805231D+02 0.4885660D+01 0.3780456D+01 0.8784966D+00
EXPONENTS  0.2857144D+00 0.3780456D+01 0.8784966D+00 0.2857144D+00 0.3780456D+01
EXPONENTS  0.8784966D+00 0.2857144D+00 0.3780456D+01 0.8784966D+00 0.2857144D+00
EXPONENTS  0.9910617D+02 0.1805231D+02 0.4885660D+01 0.3780456D+01 0.8784966D+00
EXPONENTS  0.2857144D+00 0.3780456D+01 0.8784966D+00 0.2857144D+00 0.3780456D+01
EXPONENTS  0.8784966D+00 0.2857144D+00 0.3780456D+01 0.8784966D+00 0.2857144D+00
EXPONENTS  0.7161684D+02 0.1304510D+02 0.3530512D+01 0.2941249D+01 0.6834831D+00
EXPONENTS  0.2222899D+00 0.2941249D+01 0.6834831D+00 0.2222899D+00 0.2941249D+01
EXPONENTS  0.6834831D+00 0.2222899D+00 0.2941249D+01 0.6834831D+00 0.2222899D+00
EXPONENTS  0.7161684D+02 0.1304510D+02 0.3530512D+01 0.2941249D+01 0.6834831D+00
EXPONENTS  0.2222899D+00 0.2941249D+01 0.6834831D+00 0.2222899D+00 0.2941249D+01
EXPONENTS  0.6834831D+00 0.2222899D+00 0.2941249D+01 0.6834831D+00 0.2222899D+00
EXPONENTS  0.7161684D+02 0.1304510D+02 0.3530512D+01 0.2941249D+01 0.6834831D+00
EXPONENTS  0.2222899D+00 0.2941249D+01 0.6834831D+00 0.2222899D+00 0.2941249D+01
EXPONENTS  0.6834831D+00 0.2222899D+00 0.2941249D+01 0.6834831D+00 0.2222899D+00
EXPONENTS  0.7161684D+02 0.1304510D+02 0.3530512D+01 0.2941249D+01 0.6834831D+00
EXPONENTS  0.2222899D+00 0.2941249D+01 0.6834831D+00 0.2222899D+00 0.2941249D+01
EXPONENTS  0.6834831D+00 0.2222899D+00 0.2941249D+01 0.6834831D+00 0.2222899D+00
EXPONENTS  0.7161684D+02 0.1304510D+02 0.3530512D+01 0.2941249D+01 0.6834831D+00
EXPONENTS  0.2222899D+00 0.2941249D+01 0.6834831D+00 0.2222899D+00 0.2941249D+01
EXPONENTS  0.6834831D+00 0.2222899D+00 0.2941249D+01 0.6834831D+00 0.2222899D+00
EXPONENTS  0.7161684D+02 0.1304510D+02 0.3530512D+01 0.2941249D+01 0.6834831D+00
EXPONENTS  0.2222899D+00 0.2941249D+01 0.6834831D+00 0.2222899D+00 0.2941249D+01
EXPONENTS  0.6834831D+00 0.2222899D+00 0.2941249D+01 0.6834831D+00 0.2222899D+00
EXPONENTS  0.3425251D+01 0.6239137D+00 0.1688554D+00 0.3425251D+01 0.6239137D+00
EXPONENTS  0.1688554D+00 0.3425251D+01 0.6239137D+00 0.1688554D+00 0.3425251D+01
EXPONENTS  0.6239137D+00 0.1688554D+00 0.3425251D+01 0.6239137D+00 0.1688554D+00
EXPONENTS  0.3425251D+01 0.6239137D+00 0.1688554D+00 0.3425251D+01 0.6239137D+00
EXPONENTS  0.1688554D+00 0.3425251D+01 0.6239137D+00 0.1688554D+00 0.3425251D+01
EXPONENTS  0.6239137D+00 0.1688554D+00
MO    1     MO 0.0        OCC NO =    2.0000000  ORB. ENERGY =  -19.000754
  0.42244006D+01  0.40856563D+01  0.12733206D+01 -0.68903736D-02  0.92164314D-02
  0.69557782D-02 -0.55472445D-02 -0.34882562D-02 -0.55259839D-03  0.47643472D-02
  0.29959494D-02  0.47460872D-03  0.27595293D-03  0.17352661D-03  0.27489530D-04
  0.55235322D-02  0.53421199D-02  0.16649054D-02 -0.93684745D-04  0.12531092D-03
  0.94574017D-04  0.10552980D-02  0.66359970D-03  0.10512534D-03  0.39095574D-03
  0.24584346D-03  0.38945735D-04  0.21409480D-03  0.13462856D-03  0.21327425D-04
 -0.32915646D-06 -0.31834579D-06 -0.99214479D-07 -0.30900663D-05  0.41332134D-05
  0.31193978D-05 -0.13603207D-04 -0.85540617D-05 -0.13551071D-05  0.22595932D-04
  0.14208928D-04  0.22509329D-05  0.33600024D-05  0.21128596D-05  0.33471247D-06
  0.41365594D-04  0.40007001D-04  0.12468435D-04  0.12627327D-04 -0.16890070D-04
 -0.12747188D-04 -0.12348585D-04 -0.77651219D-05 -0.12301258D-05 -0.21581244D-03
 -0.13570866D-03 -0.21498531D-04  0.15288478D-04  0.96138050D-05  0.15229882D-05
 -0.13173895D-07 -0.12741218D-07 -0.39708812D-08 -0.20679538D-07  0.27660553D-07
  0.20875832D-07  0.58977541D-06  0.37086661D-06  0.58751501D-07  0.26400422D-06
  0.16601294D-06  0.26299239D-07  0.26863021D-06  0.16892188D-06  0.26760065D-07
  0.63411840D-05  0.61329171D-05  0.19113624D-05  0.16615149D-05 -0.22224104D-05
 -0.16772863D-05  0.45215170D-05  0.28432512D-05  0.45041876D-06 -0.32787269D-04
 -0.20617515D-04 -0.32661607D-05 -0.21484388D-04 -0.13509959D-04 -0.21402046D-05
 -0.70940650D-04 -0.68610708D-04 -0.21382961D-04 -0.50698925D-04  0.67813907D-04
  0.51180168D-04  0.33168532D-03  0.20857263D-03  0.33041409D-04  0.88059404D-04
  0.55374116D-04  0.87721904D-05  0.63533863D-04  0.39951798D-04  0.63290360D-05
  0.34819940D-05  0.33676330D-05  0.10495441D-05 -0.62743244D-06  0.83924158D-06
  0.63338814D-06 -0.12752812D-04 -0.80193103D-05 -0.12703935D-05 -0.10389682D-04
 -0.65333107D-05 -0.10349862D-05  0.20952412D-05  0.13175439D-05  0.20872109D-06
  0.16453030D-02  0.15912654D-02  0.49592792D-03  0.82263905D-03 -0.11003462D-02
 -0.83044769D-03 -0.44888081D-02 -0.28226830D-02 -0.44716041D-03 -0.22677285D-03
 -0.14260085D-03 -0.22590371D-04 -0.60905060D-03 -0.38298736D-03 -0.60671633D-04
  0.13875109D-05  0.13419401D-05  0.41822413D-06  0.11784888D-05 -0.15763240D-05
 -0.11896753D-05 -0.47335091D-05 -0.29765575D-05 -0.47153672D-06 -0.42177358D-06
 -0.26522254D-06 -0.42015707D-07 -0.12972587D-05 -0.81575106D-06 -0.12922867D-06
  0.95861660D-06  0.92713224D-06  0.28894662D-06  0.86345212D-06 -0.11549370D-05
 -0.87164816D-06 -0.33690650D-05 -0.21185585D-05 -0.33561525D-06 -0.50363351D-07
 -0.31669827D-07 -0.50170326D-08 -0.16742404D-05 -0.10528073D-05 -0.16678237D-06
  0.92763670D-05  0.89716984D-05  0.27960865D-05 -0.25886593D-05 -0.25036385D-05
 -0.78027477D-06  0.10523633D-05  0.10177999D-05  0.31720379D-06 -0.21329829D-04
 -0.20629282D-04 -0.64292461D-05  0.12803093D-06  0.12382594D-06  0.38591137D-07
 -0.12582818D-04 -0.12169553D-04 -0.37927183D-05 -0.38594436D-04 -0.37326859D-04
 -0.11633151D-04  0.34397232D-06  0.33267505D-06  0.10368028D-06 -0.17388410D-02
 -0.16817313D-02 -0.52412220D-03
MO    2     MO 0.0        OCC NO =    2.0000000  ORB. ENERGY =  -18.942303
 -0.59804222D-02 -0.57840040D-02 -0.18026214D-02 -0.88528728D-04  0.11841433D-03
  0.89369058D-04 -0.41381719D-03 -0.26021935D-03 -0.41223117D-04  0.88843125D-03
  0.55866941D-03  0.88502621D-04  0.12557468D-03  0.78964729D-04  0.12509340D-04
  0.42244034D+01  0.40856590D+01  0.12733215D+01 -0.69440151D-02  0.92881811D-02
  0.70099288D-02  0.37515058D-02  0.23590475D-02  0.37371276D-03 -0.77233686D-02
 -0.48566615D-02 -0.76937677D-03 -0.92409405D-03 -0.58109514D-03 -0.92055233D-04
 -0.41497390D-03 -0.40134469D-03 -0.12508161D-03 -0.27040306D-03  0.36168593D-03
  0.27296977D-03  0.11249817D-02  0.70741865D-03  0.11206700D-03  0.83940762D-03
  0.52784204D-03  0.83619047D-04 -0.23720537D-04 -0.14916110D-04 -0.23629624D-05
  0.36426521D-05  0.35230146D-05  0.10979698D-05 -0.75696247D-05  0.10124984D-04
  0.76414768D-05 -0.88624615D-04 -0.55729536D-04 -0.88284948D-05 -0.85010545D-04
 -0.53456912D-04 -0.84684730D-05 -0.22278371D-04 -0.14009237D-04 -0.22192986D-05
  0.30694944D-06  0.29686814D-06  0.92520832D-07  0.20944529D-05 -0.28014999D-05
 -0.21143338D-05 -0.17131094D-05 -0.10772492D-05 -0.17065437D-06 -0.30164307D-05
 -0.18968125D-05 -0.30048698D-06  0.23504872D-06  0.14780495D-06  0.23414787D-07
 -0.26866871D-04 -0.25984468D-04 -0.80982237D-05 -0.72675155D-06  0.97208891D-06
  0.73365000D-06  0.11720260D-06  0.73700142D-07  0.11675341D-07  0.92259747D-04
  0.58015405D-04  0.91906148D-05  0.42337062D-04  0.26622681D-04  0.42174799D-05
 -0.53966410D-04 -0.52193962D-04 -0.16266578D-04 -0.10803785D-04  0.14450935D-04
  0.10906336D-04 -0.39795515D-03 -0.25024488D-03 -0.39642993D-04  0.20800778D-03
  0.13080087D-03  0.20721056D-04 -0.69774681D-05 -0.43876192D-05 -0.69507260D-06
 -0.23389431D-04 -0.22621239D-04 -0.70500521D-05 -0.10848218D-04  0.14510368D-04
  0.10951191D-04 -0.18619713D-04 -0.11708575D-04 -0.18548350D-05  0.43149822D-04
  0.27133766D-04  0.42984444D-05 -0.95611897D-05 -0.60123327D-05 -0.95245451D-06
  0.17865227D-02  0.17278470D-02  0.53849443D-03  0.11684816D-02 -0.15629385D-02
 -0.11795730D-02  0.33265427D-02  0.20918193D-02  0.33137933D-03 -0.49197548D-02
 -0.30936738D-02 -0.49008991D-03 -0.57150088D-03 -0.35937509D-03 -0.56931052D-04
 -0.42535010D-05 -0.41138010D-05 -0.12820921D-05 -0.38225554D-06  0.51129767D-06
  0.38588398D-06 -0.20156379D-07 -0.12674872D-07 -0.20079127D-08  0.10561056D-04
  0.66410756D-05  0.10520579D-05 -0.12793221D-05 -0.80447209D-06 -0.12744190D-06
 -0.13069722D-04 -0.12640466D-04 -0.39394810D-05 -0.90297291D-05  0.12077992D-04
  0.91154409D-05  0.41175175D-04  0.25892055D-04  0.41017365D-05 -0.52050588D-04
 -0.32730807D-04 -0.51851097D-05  0.16707822D-04  0.10506327D-04  0.16643787D-05
  0.64058807D-05  0.61954889D-05  0.19308633D-05  0.11103108D-04  0.10738443D-04
  0.33467037D-05  0.73005019D-05  0.70607276D-05  0.22005204D-05 -0.10540632D-02
 -0.10194441D-02 -0.31771619D-03  0.10617513D-05  0.10268796D-05  0.32003353D-06
 -0.65634510D-05 -0.63478841D-05 -0.19783582D-05 -0.44003599D-05 -0.42558366D-05
 -0.13263584D-05  0.14033559D-04  0.13572647D-04  0.42300012D-05 -0.59652183D-04
 -0.57692994D-04 -0.17980386D-04
MO    3     MO 0.0        OCC NO =    2.0000000  ORB. ENERGY =  -14.161478
  0.22704738D-05  0.21959034D-05  0.68436717D-06  0.84838693D-06 -0.11347861D-05
 -0.85643997D-06 -0.16489036D-05 -0.10368748D-05 -0.16425839D-06 -0.93449998D-05
 -0.58763867D-05 -0.93091838D-06 -0.27509555D-05 -0.17298747D-05 -0.27404121D-06
 -0.86936319D-03 -0.84081023D-03 -0.26204382D-03 -0.26372069D-03  0.35274773D-03
  0.26622397D-03 -0.16070693D-02 -0.10105683D-02 -0.16009100D-03 -0.15064354D-03
 -0.94728701D-04 -0.15006618D-04 -0.79016165D-04 -0.49687485D-04 -0.78713325D-05
  0.34282548D+01  0.33156587D+01  0.10333460D+01 -0.71475895D-02  0.95604784D-02
  0.72154356D-02 -0.15518912D-02 -0.97587085D-03 -0.15459434D-03 -0.20084963D-02
 -0.12629963D-02 -0.20007984D-03 -0.17161267D-03 -0.10791466D-03 -0.17095494D-04
  0.71681195D-04  0.69326931D-04  0.21606176D-04 -0.12012430D-05  0.16067596D-05
  0.12126454D-05 -0.43184814D-05 -0.27155770D-05 -0.43019302D-06  0.34123816D-05
  0.21457971D-05  0.33993032D-06  0.58868604D-05  0.37018158D-05  0.58642981D-06
  0.12006825D-02  0.11612479D-02  0.36191024D-03 -0.87352776D-04  0.11684140D-03
  0.88181944D-04  0.53916747D-03  0.33904298D-03  0.53710104D-04  0.77296603D-04
  0.48606179D-04  0.77000353D-05  0.70470703D-04  0.44313869D-04  0.70200614D-05
 -0.54356280D-04 -0.52571028D-04 -0.16384093D-04 -0.49769198D-04  0.66570323D-04
  0.50241616D-04 -0.16768564D-04 -0.10544523D-04 -0.16704296D-05  0.33209670D-03
  0.20883132D-03  0.33082389D-04 -0.60046731D-04 -0.37758996D-04 -0.59816593D-05
 -0.13237642D-04 -0.12802871D-04 -0.39900956D-05 -0.69759644D-06  0.93309159D-06
  0.70421814D-06 -0.21163862D-04 -0.13308404D-04 -0.21082748D-05  0.22056037D-04
  0.13869428D-04  0.21971504D-05 -0.42497634D-04 -0.26723652D-04 -0.42334755D-05
  0.16372681D-02  0.15834944D-02  0.49350605D-03  0.11549356D-02 -0.15448197D-02
 -0.11658984D-02  0.37808002D-03  0.23774686D-03  0.37663097D-04 -0.50252385D-02
 -0.31600048D-02 -0.50059785D-03  0.83234936D-03  0.52340362D-03  0.82915927D-04
 -0.56797765D-04 -0.54932326D-04 -0.17120007D-04 -0.31182850D-04  0.41709582D-04
  0.31478844D-04 -0.98439226D-04 -0.61901227D-04 -0.98061943D-05  0.53240621D-04
  0.33479131D-04  0.53036569D-05  0.45229899D-05  0.28441775D-05  0.45056549D-06
 -0.81188422D-05 -0.78521907D-05 -0.24471849D-05 -0.87405611D-04  0.11691207D-03
  0.88235280D-04  0.24349908D-03  0.15311876D-03  0.24256584D-04  0.31075340D-03
  0.19541008D-03  0.30956239D-04 -0.10941894D-04 -0.68805566D-05 -0.10899958D-05
  0.16032894D-02  0.15506318D-02  0.48326419D-03  0.11442037D-02 -0.15304649D-02
 -0.11550647D-02 -0.48864311D-02 -0.30727190D-02 -0.48677032D-03  0.99431100D-03
  0.62524944D-03  0.99050016D-04 -0.90885708D-03 -0.57151372D-03 -0.90537375D-04
  0.12938932D-05  0.12513972D-05  0.39000583D-06 -0.92393450D-05 -0.89358922D-05
 -0.27849273D-05 -0.24183441D-05 -0.23389171D-05 -0.72893830D-06 -0.20715087D-02
 -0.20034731D-02 -0.62439505D-03 -0.29073173D-05 -0.28118307D-05 -0.87632481D-06
  0.10527536D-05  0.10181774D-05  0.31732143D-06  0.98075611D-07  0.94854461D-07
  0.29561992D-07  0.60801573D-04  0.58804634D-04  0.18326836D-04  0.31836884D-05
  0.30791248D-05  0.95962871D-06
MO    4     MO 0.0        OCC NO =    2.0000000  ORB. ENERGY =  -14.140327
  0.10111760D-03  0.97796538D-04  0.30478909D-04  0.15979404D-04 -0.21373744D-04
 -0.16131083D-04  0.46670040D-04  0.29347374D-04  0.46491171D-05  0.26538474D-03
  0.16688105D-03  0.26436762D-04  0.12438611D-03  0.78217325D-04  0.12390938D-04
  0.95120963D-05  0.91996854D-05  0.28671401D-05 -0.11163335D-05  0.14931863D-05
  0.11269300D-05  0.30424196D-04  0.19131551D-04  0.30307590D-05  0.39229470D-04
  0.24668544D-04  0.39079118D-05 -0.60290486D-06 -0.37912275D-06 -0.60059414D-07
 -0.76014112D-04 -0.73517540D-04 -0.22912206D-04 -0.54384437D-05  0.72743578D-05
  0.54900663D-05 -0.14258744D-04 -0.89662810D-05 -0.14204096D-05  0.99829325D-05
  0.62775359D-05  0.99446715D-06  0.92646294D-05  0.58258476D-05  0.92291214D-06
  0.34289851D+01  0.33163651D+01  0.10335661D+01 -0.68006124D-02  0.90963684D-02
  0.68651650D-02 -0.46994387D-02 -0.29551332D-02 -0.46814274D-03 -0.27041482D-02
 -0.17004409D-02 -0.26937842D-03  0.36338066D-02  0.22850351D-02  0.36198795D-03
 -0.14923576D-05 -0.14433433D-05 -0.44982706D-06  0.17860356D-06 -0.23889669D-06
 -0.18029889D-06  0.42923782D-06  0.26991626D-06  0.42759271D-07  0.11920609D-05
  0.74959989D-06  0.11874922D-06  0.75568735D-06  0.47519648D-06  0.75279107D-07
 -0.35473375D-04 -0.34308304D-04 -0.10692400D-04 -0.32494615D-04  0.43464172D-04
  0.32803059D-04  0.29793087D-03  0.18734693D-03  0.29678901D-04 -0.11028600D-03
 -0.69350794D-04 -0.10986331D-04 -0.80770908D-04 -0.50790914D-04 -0.80461342D-05
  0.15799919D-02  0.15280994D-02  0.47624183D-03  0.92472946D-03 -0.12369004D-02
 -0.93350715D-03 -0.36288607D-02 -0.22819250D-02 -0.36149526D-03  0.25950658D-02
  0.16318470D-02  0.25851198D-03  0.52649555D-04  0.33107453D-04  0.52447768D-05
  0.18528031D-04  0.17919505D-04  0.55847271D-05  0.25208970D-05 -0.33719033D-05
 -0.25448258D-05 -0.42239784D-04 -0.26561510D-04 -0.42077894D-05 -0.41281205D-04
 -0.25958729D-04 -0.41122988D-05  0.49528686D-04  0.31144967D-04  0.49338860D-05
 -0.92083783D-05 -0.89059426D-05 -0.27755933D-05 -0.44209744D-04  0.59134104D-04
  0.44629390D-04  0.61598032D-04  0.38734495D-04  0.61361948D-05 -0.19870734D-03
 -0.12495251D-03 -0.19794577D-04  0.20673308D-04  0.12999931D-04  0.20594074D-05
  0.21231769D-05  0.20534443D-05  0.63996889D-06  0.23586883D-05 -0.31549361D-05
 -0.23810774D-05 -0.98950743D-05 -0.62222883D-05 -0.98571500D-06  0.37007164D-06
  0.23271098D-06  0.36865329D-07 -0.91762771D-05 -0.57702893D-05 -0.91411077D-06
  0.73186963D-06  0.70783244D-06  0.22060045D-06  0.86904120D-06 -0.11624128D-05
 -0.87729029D-06 -0.32939553D-05 -0.20713275D-05 -0.32813308D-06 -0.53387333D-06
 -0.33571388D-06 -0.53182718D-07 -0.28713575D-05 -0.18055866D-05 -0.28603526D-06
  0.38893851D-04  0.37616440D-04  0.11723401D-04  0.44460626D-04  0.43000382D-04
  0.13401341D-04  0.10252392D-03  0.99156668D-04  0.30902802D-04 -0.18150113D-04
 -0.17553999D-04 -0.54708148D-05 -0.22388986D-06 -0.21653653D-06 -0.67484978D-07
 -0.21573912D-02 -0.20865348D-02 -0.65028177D-03 -0.21576475D-02 -0.20867827D-02
 -0.65035903D-03  0.34691790D-06  0.33552389D-06  0.10456814D-06 -0.13132717D-04
 -0.12701392D-04 -0.39584691D-05
MO    5     MO 0.0        OCC NO =    2.0000000  ORB. ENERGY =  -14.067181
 -0.10918674D-06 -0.10560066D-06 -0.32911113D-07 -0.39027438D-07  0.52202351D-07
  0.39397893D-07 -0.22868246D-06 -0.14380167D-06 -0.22780600D-07 -0.53610129D-07
 -0.33711487D-07 -0.53404660D-08  0.10031433D-06  0.63080345D-07  0.99929865D-08
 -0.14697047D-06 -0.14214344D-06 -0.44299901D-07  0.21528160D-06 -0.28795654D-06
 -0.21732509D-06 -0.25976586D-06 -0.16334774D-06 -0.25877027D-07 -0.23565054D-05
 -0.14818338D-05 -0.23474737D-06  0.81186077D-06  0.51051984D-06  0.80874919D-07
 -0.14132916D-02 -0.13668741D-02 -0.42599497D-03 -0.93486822D-04  0.12504618D-03
  0.94374215D-04 -0.56036080D-03 -0.35236991D-03 -0.55821314D-04 -0.30206818D-03
 -0.18994858D-03 -0.30091046D-04 -0.39221729D-04 -0.24663676D-04 -0.39071406D-05
  0.19472574D-05  0.18833026D-05  0.58694315D-06  0.15098308D-06 -0.20195207D-06
 -0.15241624D-06 -0.58086573D-06 -0.36526396D-06 -0.57863948D-07  0.46186458D-06
  0.29043284D-06  0.46009442D-07  0.83943707D-06  0.52786056D-06  0.83621981D-07
  0.34294628D+01  0.33168272D+01  0.10337101D+01 -0.66607401D-02  0.89092780D-02
  0.67239650D-02  0.81831384D-02  0.51457770D-02  0.81517754D-03  0.13602505D-02
  0.85536203D-03  0.13550372D-03  0.10216560D-02  0.64244473D-03  0.10177404D-03
 -0.46442975D-05 -0.44917624D-05 -0.13998861D-05 -0.94850753D-05  0.12687055D-04
  0.95751093D-05 -0.27954488D-05 -0.17578532D-05 -0.27847348D-06  0.33533818D-04
  0.21086965D-04  0.33405295D-05 -0.10502592D-04 -0.66043118D-05 -0.10462339D-05
  0.19001184D-05  0.18377118D-05  0.57273451D-06  0.14682243D-05 -0.19638687D-05
 -0.14821610D-05  0.41110321D-05  0.25851273D-05  0.40952760D-06 -0.98097735D-06
 -0.61686488D-06 -0.97721761D-07 -0.45037913D-05 -0.28321048D-05 -0.44865298D-06
 -0.46093908D-04 -0.44580021D-04 -0.13893645D-04 -0.88807236D-04  0.11878685D-03
  0.89650210D-04 -0.46699143D-03 -0.29365674D-03 -0.46520162D-04  0.19317169D-03
  0.12147154D-03  0.19243133D-04 -0.10223969D-03 -0.64291059D-04 -0.10184784D-04
 -0.30901128D-06 -0.29886226D-06 -0.93142312D-07 -0.12608087D-06  0.16864335D-06
  0.12727765D-06 -0.72655762D-06 -0.45687893D-06 -0.72377298D-07 -0.54692889D-06
 -0.34392356D-06 -0.54483270D-07 -0.44852899D-06 -0.28204706D-06 -0.44680994D-07
  0.16829737D-02  0.16276989D-02  0.50728264D-03  0.11643144D-02 -0.15573646D-02
 -0.11753663D-02  0.32817218D-02  0.20636347D-02  0.32691441D-03 -0.39928222D-02
 -0.25107937D-02 -0.39775191D-03  0.11101804D-02  0.69811121D-03  0.11059254D-03
  0.17071940D-02  0.16511237D-02  0.51458314D-03  0.13149019D-02 -0.17587875D-02
 -0.13273832D-02  0.30950641D-02  0.19462594D-02  0.30832018D-03  0.48825248D-02
  0.30702626D-02  0.48638118D-03 -0.29349547D-03 -0.18455783D-03 -0.29237061D-04
 -0.99908772D-06 -0.96627415D-06 -0.30114545D-06 -0.11310503D-04 -0.10939026D-04
 -0.34092166D-05  0.37852882D-06  0.36609659D-06  0.11409632D-06  0.71666698D-05
  0.69312910D-05  0.21601807D-05  0.25688819D-04  0.24845107D-04  0.77431348D-05
  0.63000239D-06  0.60931088D-06  0.18989559D-06  0.18089605D-06  0.17495478D-06
  0.54525764D-07  0.14451838D-04  0.13977189D-04  0.43560792D-05  0.18062983D-07
  0.17469731D-07  0.54445520D-08
MO    6     MO 0.0        OCC NO =    2.0000000  ORB. ENERGY =  -10.160008
  0.26411840D-02  0.25544382D-02  0.79610681D-03  0.13533394D-02 -0.18102008D-02
 -0.13661855D-02  0.64189828D-02  0.40364287D-02  0.63943812D-03  0.10507233D-02
  0.66072300D-03  0.10466962D-03  0.10192299D-02  0.64091909D-03  0.10153235D-03
  0.23580269D-02  0.22805810D-02  0.71075747D-03  0.17195928D-02 -0.23000943D-02
 -0.17359155D-02 -0.36125022D-02 -0.22716383D-02 -0.35986568D-03  0.44293955D-02
  0.27853228D-02  0.44124192D-03  0.48342042D-03  0.30398773D-03  0.48156764D-04
 -0.12924899D-03 -0.12500400D-03 -0.38958286D-04 -0.64927960D-04  0.86846391D-04
  0.65544267D-04  0.14461989D-03  0.90940869D-04  0.14406562D-04  0.27627607D-03
  0.17372981D-03  0.27521721D-04 -0.38006148D-05 -0.23899286D-05 -0.37860484D-06
  0.19276054D-04  0.18642961D-04  0.58101965D-05 -0.52893528D-04  0.70749366D-04
  0.53395602D-04 -0.20981658D-03 -0.13193829D-03 -0.20901242D-04 -0.11276664D-03
 -0.70910690D-04 -0.11233445D-04  0.19788416D-04  0.12443487D-04  0.19712574D-05
 -0.43372458D-06 -0.41947953D-06 -0.13073345D-06  0.21988145D-06 -0.29410920D-06
 -0.22196860D-06  0.27342983D-05  0.17194001D-05  0.27238187D-06  0.35400293D-06
  0.22260654D-06  0.35264616D-07  0.56993728D-06  0.35839185D-06  0.56775291D-07
 -0.61223865D-03 -0.59213057D-03 -0.18454124D-03 -0.37028215D-04  0.49528229D-04
  0.37379693D-04  0.35988427D-04  0.22630488D-04  0.35850496D-05 -0.18411278D-03
 -0.11577506D-03 -0.18340714D-04 -0.28638510D-05 -0.18008664D-05 -0.28528749D-06
 -0.18408120D-01 -0.17803533D-01 -0.55485835D-02  0.10588290D-02 -0.14162693D-02
 -0.10688796D-02 -0.12524237D-02 -0.78755766D-03 -0.12476236D-03 -0.41245118D-02
 -0.25936037D-02 -0.41087040D-03 -0.10652652D-02 -0.66986738D-03 -0.10611825D-03
 -0.12538589D-04 -0.12126777D-04 -0.37793867D-05 -0.10638651D-04  0.14230055D-04
  0.10739635D-04 -0.27993934D-04 -0.17603337D-04 -0.27886644D-05 -0.22360728D-04
 -0.14061026D-04 -0.22275028D-05 -0.12420445D-04 -0.78103088D-05 -0.12372841D-05
  0.26840779D+01  0.25959233D+01  0.80903592D+00 -0.60203157D-02  0.80526586D-02
  0.60774615D-02 -0.18793260D-05 -0.11817706D-05 -0.18721232D-06  0.69910880D-03
  0.43961838D-03  0.69642937D-04  0.13518190D-03  0.85006009D-04  0.13466380D-04
 -0.15512561D-04 -0.15003073D-04 -0.46758027D-05  0.45193451D-05 -0.60449891D-05
 -0.45622435D-05 -0.19098991D-04 -0.12009958D-04 -0.19025791D-05  0.18432955D-05
  0.11591137D-05  0.18362309D-06 -0.78510445D-06 -0.49369475D-06 -0.78209543D-07
 -0.51271332D-05 -0.49587401D-05 -0.15454227D-05  0.28824691D-05 -0.38555353D-05
 -0.29098300D-05 -0.10567465D-04 -0.66451056D-05 -0.10526964D-05 -0.94578523D-05
 -0.59473513D-05 -0.94216037D-06 -0.32393913D-05 -0.20370162D-05 -0.32269759D-06
 -0.91373546D-04 -0.88372516D-04 -0.27541853D-04 -0.47047533D-04 -0.45502326D-04
 -0.14181087D-04 -0.37028060D-04 -0.35811927D-04 -0.11161014D-04 -0.29629353D-03
 -0.28656220D-03 -0.89308922D-04  0.11752495D-05  0.11366501D-05  0.35424419D-06
 -0.42915083D-04 -0.41505600D-04 -0.12935482D-04 -0.46389731D-04 -0.44866128D-04
 -0.13982813D-04  0.42277662D-05  0.40889114D-05  0.12743351D-05 -0.47926383D-03
 -0.46352311D-03 -0.14445991D-03
MO    7     MO 0.0        OCC NO =    2.0000000  ORB. ENERGY =  -10.092250
 -0.80648510D-04 -0.77999728D-04 -0.24309108D-04 -0.68019268D-04  0.90981266D-04
  0.68664919D-04 -0.22696372D-03 -0.14272087D-03 -0.22609384D-04 -0.12027419D-03
 -0.75631639D-04 -0.11981322D-04 -0.53673919D-04 -0.33751601D-04 -0.53468206D-05
 -0.97277250D-04 -0.94082321D-04 -0.29321350D-04 -0.21445290D-04  0.28684807D-04
  0.21648852D-04 -0.50424122D-03 -0.31708041D-03 -0.50230864D-04 -0.38686813D-03
 -0.24327306D-03 -0.38538540D-04 -0.15095548D-03 -0.94924858D-04 -0.15037692D-04
 -0.29823252D-04 -0.28843751D-04 -0.89893373D-05 -0.17083985D-04  0.22851209D-04
  0.17246149D-04 -0.11142921D-04 -0.70069675D-05 -0.11100214D-05  0.64388118D-04
  0.40488977D-04  0.64141342D-05  0.35506966D-04  0.22327733D-04  0.35370880D-05
  0.26606161D-02  0.25732321D-02  0.80196404D-03  0.11508334D-02 -0.15393327D-02
 -0.11617574D-02  0.46528029D-02  0.29258073D-02  0.46349703D-03 -0.35000701D-02
 -0.22009380D-02 -0.34866556D-03  0.48940612D-04  0.30775170D-04  0.48753040D-05
  0.31721699D-05  0.30679846D-05  0.95615679D-06  0.14155737D-05 -0.18934441D-05
 -0.14290105D-05 -0.39860750D-05 -0.25065509D-05 -0.39707978D-06  0.50789047D-05
  0.31937515D-05  0.50594390D-06  0.45036122D-05  0.28319922D-05  0.44863515D-06
 -0.31450482D-01 -0.30417537D-01 -0.94798175D-02  0.11520621D-02 -0.15409761D-02
 -0.11629977D-02 -0.34664796D-02 -0.21798154D-02 -0.34531939D-03 -0.14672958D-02
 -0.92267496D-03 -0.14616722D-03  0.27467751D-02  0.17272459D-02  0.27362477D-03
  0.26819148D+01  0.25938313D+01  0.80838391D+00 -0.68567799D-02  0.91714971D-02
  0.69218657D-02 -0.13477626D-03 -0.84750926D-04 -0.13425971D-04  0.53754458D-03
  0.33802246D-03  0.53548436D-04 -0.74553132D-03 -0.46881010D-03 -0.74267396D-04
 -0.58325240D-03 -0.56409633D-03 -0.17580419D-03 -0.33282517D-04  0.44518055D-04
  0.33598440D-04  0.98894918D-04  0.62187779D-04  0.98515889D-05 -0.70721770D-04
 -0.44471747D-04 -0.70450718D-05 -0.20612423D-04 -0.12961645D-04 -0.20533423D-05
  0.22454491D-01  0.21717006D-01  0.67682421D-02  0.10768538D-02 -0.14403790D-02
 -0.10870755D-02  0.12945050D-02  0.81401946D-03  0.12895436D-03  0.45981317D-02
  0.28914286D-02  0.45805087D-03  0.11138316D-02  0.70040721D-03  0.11095627D-03
 -0.24537644D-04 -0.23731741D-04 -0.73961472D-05  0.36133336D-05 -0.48331256D-05
 -0.36476320D-05 -0.18490339D-04 -0.11627221D-04 -0.18419472D-05  0.18269330D-04
  0.11488245D-04  0.18199310D-05 -0.27589072D-04 -0.17348749D-04 -0.27483333D-05
 -0.93359734D-05 -0.90293470D-05 -0.28140531D-05  0.21461474D-05 -0.28706455D-05
 -0.21665190D-05 -0.83638437D-05 -0.52594094D-05 -0.83317881D-06 -0.41218273D-05
 -0.25919156D-05 -0.41060298D-06 -0.87555957D-05 -0.55057536D-05 -0.87220387D-06
  0.44628965D-04  0.43163192D-04  0.13452082D-04  0.47827030D-04  0.46256221D-04
  0.14416044D-04 -0.25399892D-02 -0.24565669D-02 -0.76560462D-03 -0.57836194D-04
 -0.55936649D-04 -0.17433010D-04  0.27581679D-06  0.26675799D-06  0.83136813D-07
 -0.14300026D-03 -0.13830362D-03 -0.43103199D-04 -0.15428805D-03 -0.14922068D-03
 -0.46505569D-04  0.11982032D-05  0.11588500D-05  0.36116293D-06 -0.42636123D-04
 -0.41235802D-04 -0.12851398D-04
MO    8     MO 0.0        OCC NO =    2.0000000  ORB. ENERGY =  -10.050044
  0.15429982D-04  0.14923207D-04  0.46509119D-05  0.81651182D-05 -0.10921505D-04
 -0.82426229D-05  0.20744218D-04  0.13044521D-04  0.20664713D-05  0.12485256D-04
  0.78510643D-05  0.12437405D-05  0.60515447D-04  0.38053737D-04  0.60283513D-05
 -0.70149839D-04 -0.67845870D-04 -0.21144594D-04 -0.25045024D-04  0.33499742D-04
  0.25282755D-04 -0.29245651D-04 -0.18390450D-04 -0.29133563D-05 -0.80072239D-04
 -0.50351573D-04 -0.79765351D-05 -0.29480715D-04 -0.18538265D-04 -0.29367726D-05
 -0.11889617D-03 -0.11499120D-03 -0.35837734D-04 -0.81939802D-04  0.10960111D-03
  0.82717589D-04  0.23886890D-03  0.15020717D-03  0.23795340D-04 -0.13021104D-03
 -0.81880196D-04 -0.12971199D-04  0.46564788D-04  0.29281188D-04  0.46386321D-05
 -0.18174793D-04 -0.17577868D-04 -0.54782538D-05 -0.35521136D-04  0.47512388D-04
  0.35858308D-04 -0.14424971D-03 -0.90708089D-04 -0.14369685D-04 -0.48192393D-04
 -0.30304670D-04 -0.48007689D-05  0.15849331D-03  0.99664849D-04  0.15788586D-04
  0.37655991D-06  0.36419235D-06  0.11350285D-06 -0.61828116D-05  0.82700101D-05
  0.62415000D-05 -0.12692474D-04 -0.79813684D-05 -0.12643828D-05 -0.14430593D-04
 -0.90743440D-05 -0.14375286D-05  0.15495960D-05  0.97442755D-06  0.15436570D-06
  0.26813505D+01  0.25932855D+01  0.80821381D+00 -0.71762720D-02  0.95988436D-02