 opt histidine m062x
GAUSSIAN             41 MOL ORBITALS    192 PRIMITIVES       20 NUCLEI
  O    1    (CENTRE  1)   5.79577324  1.56007334  0.47034324  CHARGE =  8.0
  O    2    (CENTRE  2)   1.88709906  3.37667347  0.10799370  CHARGE =  8.0
  N    3    (CENTRE  3)  -2.47614498  1.50046353 -0.06557966  CHARGE =  7.0
  N    4    (CENTRE  4)   4.67785457 -2.94451011 -0.91091819  CHARGE =  7.0
  N    5    (CENTRE  5)  -6.48648127 -0.07415120 -0.27019806  CHARGE =  7.0
  C    6    (CENTRE  6)   0.22782561 -2.28636487  1.02764035  CHARGE =  6.0
  C    7    (CENTRE  7)   2.37089547 -1.30346159 -0.78564192  CHARGE =  6.0
  C    8    (CENTRE  8)  -2.31362879 -1.07676436  0.47368014  CHARGE =  6.0
  C    9    (CENTRE  9)   3.23580751  1.42736331 -0.04532178  CHARGE =  6.0
  C   10    (CENTRE 10)  -4.73950103 -2.00136068  0.33801804  CHARGE =  6.0
  C   11    (CENTRE 11)  -5.01125235  2.00004457 -0.49444640  CHARGE =  6.0
  H   12    (CENTRE 12)   0.81160585 -1.96839999  3.00125590  CHARGE =  1.0
  H   13    (CENTRE 13)   0.06440017 -4.33955471  0.75540037  CHARGE =  1.0
  H   14    (CENTRE 14)   1.58068124 -1.17826258 -2.71451354  CHARGE =  1.0
  H   15    (CENTRE 15)  -0.78244092  2.66187813 -0.09456953  CHARGE =  1.0
  H   16    (CENTRE 16)  -5.36150025 -3.94162754  0.63948160  CHARGE =  1.0
  H   17    (CENTRE 17)   4.00225887 -4.72789376 -1.48170248  CHARGE =  1.0
  H   18    (CENTRE 18)   5.22799908 -3.24590037  0.97874794  CHARGE =  1.0
  H   19    (CENTRE 19)  -5.68251093  3.89526970 -0.96654677  CHARGE =  1.0
  H   20    (CENTRE 20)   6.04905175  3.42116290  0.89905178  CHARGE =  1.0
CENTRE ASSIGNMENTS    1  1  1  1  1  1  1  1  1  1  1  1  1  1  1  2  2  2  2  2
CENTRE ASSIGNMENTS    2  2  2  2  2  2  2  2  2  2  3  3  3  3  3  3  3  3  3  3
CENTRE ASSIGNMENTS    3  3  3  3  3  4  4  4  4  4  4  4  4  4  4  4  4  4  4  4
CENTRE ASSIGNMENTS    5  5  5  5  5  5  5  5  5  5  5  5  5  5  5  6  6  6  6  6
CENTRE ASSIGNMENTS    6  6  6  6  6  6  6  6  6  6  7  7  7  7  7  7  7  7  7  7
CENTRE ASSIGNMENTS    7  7  7  7  7  8  8  8  8  8  8  8  8  8  8  8  8  8  8  8
CENTRE ASSIGNMENTS    9  9  9  9  9  9  9  9  9  9  9  9  9  9  9 10 10 10 10 10
CENTRE ASSIGNMENTS   10 10 10 10 10 10 10 10 10 10 11 11 11 11 11 11 11 11 11 11
CENTRE ASSIGNMENTS   11 11 11 11 11 12 12 12 13 13 13 14 14 14 15 15 15 16 16 16
CENTRE ASSIGNMENTS   17 17 17 18 18 18 19 19 19 20 20 20
TYPE ASSIGNMENTS      1  1  1  1  1  1  2  2  2  3  3  3  4  4  4  1  1  1  1  1
TYPE ASSIGNMENTS      1  2  2  2  3  3  3  4  4  4  1  1  1  1  1  1  2  2  2  3
TYPE ASSIGNMENTS      3  3  4  4  4  1  1  1  1  1  1  2  2  2  3  3  3  4  4  4
TYPE ASSIGNMENTS      1  1  1  1  1  1  2  2  2  3  3  3  4  4  4  1  1  1  1  1
TYPE ASSIGNMENTS      1  2  2  2  3  3  3  4  4  4  1  1  1  1  1  1  2  2  2  3
TYPE ASSIGNMENTS      3  3  4  4  4  1  1  1  1  1  1  2  2  2  3  3  3  4  4  4
TYPE ASSIGNMENTS      1  1  1  1  1  1  2  2  2  3  3  3  4  4  4  1  1  1  1  1
TYPE ASSIGNMENTS      1  2  2  2  3  3  3  4  4  4  1  1  1  1  1  1  2  2  2  3
TYPE ASSIGNMENTS      3  3  4  4  4  1  1  1  1  1  1  1  1  1  1  1  1  1  1  1
TYPE ASSIGNMENTS      1  1  1  1  1  1  1  1  1  1  1  1
EXPONENTS  0.1307093D+03 0.2380887D+02 0.6443608D+01 0.5033151D+01 0.1169596D+01
EXPONENTS  0.3803890D+00 0.5033151D+01 0.1169596D+01 0.3803890D+00 0.5033151D+01
EXPONENTS  0.1169596D+01 0.3803890D+00 0.5033151D+01 0.1169596D+01 0.3803890D+00
EXPONENTS  0.1307093D+03 0.2380887D+02 0.6443608D+01 0.5033151D+01 0.1169596D+01
EXPONENTS  0.3803890D+00 0.5033151D+01 0.1169596D+01 0.3803890D+00 0.5033151D+01
EXPONENTS  0.1169596D+01 0.3803890D+00 0.5033151D+01 0.1169596D+01 0.3803890D+00
EXPONENTS  0.9910617D+02 0.1805231D+02 0.4885660D+01 0.3780456D+01 0.8784966D+00
EXPONENTS  0.2857144D+00 0.3780456D+01 0.8784966D+00 0.2857144D+00 0.3780456D+01
EXPONENTS  0.8784966D+00 0.2857144D+00 0.3780456D+01 0.8784966D+00 0.2857144D+00
EXPONENTS  0.9910617D+02 0.1805231D+02 0.4885660D+01 0.3780456D+01 0.8784966D+00
EXPONENTS  0.2857144D+00 0.3780456D+01 0.8784966D+00 0.2857144D+00 0.3780456D+01
EXPONENTS  0.8784966D+00 0.2857144D+00 0.3780456D+01 0.8784966D+00 0.2857144D+00
EXPONENTS  0.9910617D+02 0.1805231D+02 0.4885660D+01 0.3780456D+01 0.8784966D+00
EXPONENTS  0.2857144D+00 0.3780456D+01 0.8784966D+00 0.2857144D+00 0.3780456D+01
EXPONENTS  0.8784966D+00 0.2857144D+00 0.3780456D+01 0.8784966D+00 0.2857144D+00
EXPONENTS  0.7161684D+02 0.1304510D+02 0.3530512D+01 0.2941249D+01 0.6834831D+00
EXPONENTS  0.2222899D+00 0.2941249D+01 0.6834831D+00 0.2222899D+00 0.2941249D+01
EXPONENTS  0.6834831D+00 0.2222899D+00 0.2941249D+01 0.6834831D+00 0.2222899D+00
EXPONENTS  0.7161684D+02 0.1304510D+02 0.3530512D+01 0.2941249D+01 0.6834831D+00
EXPONENTS  0.2222899D+00 0.2941249D+01 0.6834831D+00 0.2222899D+00 0.2941249D+01
EXPONENTS  0.6834831D+00 0.2222899D+00 0.2941249D+01 0.6834831D+00 0.2222899D+00
EXPONENTS  0.7161684D+02 0.1304510D+02 0.3530512D+01 0.2941249D+01 0.6834831D+00
EXPONENTS  0.2222899D+00 0.2941249D+01 0.6834831D+00 0.2222899D+00 0.2941249D+01
EXPONENTS  0.6834831D+00 0.2222899D+00 0.2941249D+01 0.6834831D+00 0.2222899D+00
EXPONENTS  0.7161684D+02 0.1304510D+02 0.3530512D+01 0.2941249D+01 0.6834831D+00
EXPONENTS  0.2222899D+00 0.2941249D+01 0.6834831D+00 0.2222899D+00 0.2941249D+01
EXPONENTS  0.6834831D+00 0.2222899D+00 0.2941249D+01 0.6834831D+00 0.2222899D+00
EXPONENTS  0.7161684D+02 0.1304510D+02 0.3530512D+01 0.2941249D+01 0.6834831D+00
EXPONENTS  0.2222899D+00 0.2941249D+01 0.6834831D+00 0.2222899D+00 0.2941249D+01
EXPONENTS  0.6834831D+00 0.2222899D+00 0.2941249D+01 0.6834831D+00 0.2222899D+00
EXPONENTS  0.7161684D+02 0.1304510D+02 0.3530512D+01 0.2941249D+01 0.6834831D+00
EXPONENTS  0.2222899D+00 0.2941249D+01 0.6834831D+00 0.2222899D+00 0.2941249D+01
EXPONENTS  0.6834831D+00 0.2222899D+00 0.2941249D+01 0.6834831D+00 0.2222899D+00
EXPONENTS  0.3425251D+01 0.6239137D+00 0.1688554D+00 0.3425251D+01 0.6239137D+00
EXPONENTS  0.1688554D+00 0.3425251D+01 0.6239137D+00 0.1688554D+00 0.3425251D+01
EXPONENTS  0.6239137D+00 0.1688554D+00 0.3425251D+01 0.6239137D+00 0.1688554D+00
EXPONENTS  0.3425251D+01 0.6239137D+00 0.1688554D+00 0.3425251D+01 0.6239137D+00
EXPONENTS  0.1688554D+00 0.3425251D+01 0.6239137D+00 0.1688554D+00 0.3425251D+01
EXPONENTS  0.6239137D+00 0.1688554D+00
MO    1     MO 0.0        OCC NO =    2.0000000  ORB. ENERGY =  -19.490795
  0.42264593D+01  0.40876474D+01  0.12739411D+01 -0.64160010D-02  0.85819196D-02
  0.64769028D-02 -0.54132424D-02 -0.34039921D-02 -0.53924954D-03  0.48208995D-02
  0.30315110D-02  0.48024227D-03 -0.23661070D-04 -0.14878716D-04 -0.23570386D-05
  0.50172474D-02  0.48524633D-02  0.15123009D-02 -0.88346274D-04  0.11817028D-03
  0.89184872D-04  0.96187824D-03  0.60485485D-03  0.95819170D-04  0.34476985D-03
  0.21680054D-03  0.34344847D-04  0.25880930D-03  0.16274623D-03  0.25781738D-04
  0.47515191D-06  0.45954624D-06  0.14322049D-06 -0.26655925D-05  0.35654453D-05
  0.26908948D-05 -0.15387971D-04 -0.96763692D-05 -0.15328994D-05  0.21322209D-04
  0.13407977D-04  0.21240489D-05  0.28033600D-05  0.17628280D-05  0.27926157D-06
  0.32871120D-04  0.31791517D-04  0.99080271D-05  0.81034200D-05 -0.10838979D-04
 -0.81803391D-05  0.11812379D-05  0.74279407D-06  0.11767106D-06 -0.19580207D-03
 -0.12312560D-03 -0.19505163D-04  0.17169566D-04  0.10796684D-04  0.17103761D-05
 -0.32493079D-07 -0.31425892D-07 -0.97940778D-08 -0.42607240D-07  0.56990626D-07
  0.43011675D-07  0.61916916D-06  0.38935018D-06  0.61679610D-07  0.22596338D-06
  0.14209183D-06  0.22509734D-07  0.20949151D-06  0.13173388D-06  0.20868860D-07
  0.20251382D-05  0.19586255D-05  0.61041801D-06  0.95042975D-06 -0.12712766D-05
 -0.95945139D-06  0.77215954D-05  0.48555464D-05  0.76920013D-06 -0.21119099D-04
 -0.13280256D-04 -0.21038157D-05 -0.20080851D-04 -0.12627378D-04 -0.20003889D-05
 -0.62896449D-04 -0.60830707D-04 -0.18958274D-04 -0.46927211D-04  0.62768936D-04
  0.47372652D-04  0.31039871D-03  0.19518704D-03  0.30920906D-04  0.68602100D-04
  0.43138841D-04  0.68339172D-05  0.69722573D-04  0.43843425D-04  0.69455351D-05
  0.33214407D-05  0.32123529D-05  0.10011501D-05 -0.55385088D-06  0.74082030D-06
  0.55910813D-06 -0.12748879D-04 -0.80168370D-05 -0.12700017D-05 -0.97304265D-05
 -0.61187533D-05 -0.96931332D-06  0.10852500D-05  0.68243434D-06  0.10810906D-06
  0.14942629D-02  0.14451861D-02  0.45040137D-03  0.77669070D-03 -0.10388866D-02
 -0.78406318D-03 -0.41256458D-02 -0.25943168D-02 -0.41098337D-03 -0.15032787D-03
 -0.94530198D-04 -0.14975172D-04 -0.81865624D-03 -0.51479301D-03 -0.81551862D-04
  0.13255464D-05  0.12820108D-05  0.39954677D-06  0.11688006D-05 -0.15633652D-05
 -0.11798950D-05 -0.46462838D-05 -0.29217079D-05 -0.46284762D-06 -0.59576324D-06
 -0.37463191D-06 -0.59347989D-07 -0.82214475D-06 -0.51698668D-06 -0.81899376D-07
  0.91720525D-06  0.88708099D-06  0.27646440D-06  0.88195719D-06 -0.11796890D-05
 -0.89032888D-06 -0.34253349D-05 -0.21539425D-05 -0.34122068D-06  0.11220818D-06
  0.70559515D-07  0.11177813D-07 -0.15343592D-05 -0.96484624D-06 -0.15284785D-06
  0.10084175D-04  0.97529746D-05  0.30395762D-05 -0.16436809D-05 -0.15896966D-05
 -0.49543899D-06  0.18648771D-06  0.18036279D-06  0.56211204D-07 -0.20001714D-04
 -0.19344787D-04 -0.60289253D-05  0.11290739D-06  0.10919912D-06  0.34032595D-07
 -0.11129808D-04 -0.10764266D-04 -0.33547516D-05 -0.48045453D-04 -0.46467471D-04
 -0.14481881D-04  0.33160106D-06  0.32071010D-06  0.99951331D-07 -0.15995504D-02
 -0.15470155D-02 -0.48213716D-03
MO    2     MO 0.0        OCC NO =    2.0000000  ORB. ENERGY =  -19.440621
 -0.54317524D-02 -0.52533544D-02 -0.16372411D-02 -0.83796323D-04  0.11208435D-03
  0.84591732D-04 -0.36244927D-03 -0.22791783D-03 -0.36106013D-04  0.82917296D-03
  0.52140621D-03  0.82599504D-04  0.10209381D-03  0.64199329D-04  0.10170252D-04
  0.42265034D+01  0.40876901D+01  0.12739545D+01 -0.64628895D-02  0.86446368D-02
  0.65242364D-02  0.37657441D-02  0.23680010D-02  0.37513114D-03 -0.77220149D-02
 -0.48558102D-02 -0.76924192D-03 -0.69825699D-03 -0.43908274D-03 -0.69558082D-04
 -0.37919811D-03 -0.36674390D-03 -0.11429806D-03 -0.24486707D-03  0.32752949D-03
  0.24719139D-03  0.10058818D-02  0.63252549D-03  0.10020267D-03  0.76494267D-03
  0.48101648D-03  0.76201092D-04 -0.42874726D-04 -0.26960778D-04 -0.42710403D-05
  0.34839787D-05  0.33695525D-05  0.10501423D-05 -0.70854722D-05  0.94773915D-05
  0.71527287D-05 -0.83171763D-04 -0.52300637D-04 -0.82852996D-05 -0.81274870D-04
 -0.51107819D-04 -0.80963373D-05 -0.19407491D-04 -0.12203951D-04 -0.19333109D-05
  0.16998799D-06  0.16440499D-06  0.51237853D-07  0.18945753D-05 -0.25341476D-05
 -0.19125590D-05 -0.16301649D-05 -0.10250915D-05 -0.16239171D-06 -0.29126763D-05
 -0.18315690D-05 -0.29015130D-06  0.28339525D-06  0.17820654D-06  0.28230910D-07
 -0.27557436D-04 -0.26652353D-04 -0.83063741D-05 -0.17252350D-05  0.23076412D-05
  0.17416113D-05  0.48115728D-05  0.30256461D-05  0.47931317D-06  0.86849042D-04
  0.54613008D-04  0.86516181D-05  0.37510268D-04  0.23587463D-04  0.37366504D-05
 -0.54521624D-04 -0.52730941D-04 -0.16433931D-04 -0.14960644D-04  0.20011070D-04
  0.15102653D-04 -0.35840530D-03 -0.22537487D-03 -0.35703166D-04  0.21832266D-03
  0.13728715D-03  0.21748590D-04 -0.23041772D-04 -0.14489284D-04 -0.22953461D-05
 -0.21603423D-04 -0.20893891D-04 -0.65117131D-05 -0.10211650D-04  0.13658907D-04
  0.10308581D-04 -0.19652222D-04 -0.12357844D-04 -0.19576902D-05  0.40515424D-04
  0.25477186D-04  0.40360142D-05 -0.92984229D-05 -0.58470979D-05 -0.92627854D-06
  0.15958116D-02  0.15433995D-02  0.48101021D-03  0.11075685D-02 -0.14814624D-02
 -0.11180818D-02  0.30583175D-02  0.19231521D-02  0.30465961D-03 -0.46006064D-02
 -0.28929848D-02 -0.45829739D-03 -0.37881397D-03 -0.23820839D-03 -0.37736211D-04
 -0.35942136D-05 -0.34761670D-05 -0.10833694D-05 -0.13738178D-06  0.18375923D-06
  0.13868583D-06 -0.59982442D-06 -0.37718569D-06 -0.59752551D-07  0.89209822D-05
  0.56097530D-05  0.88867913D-06 -0.21749828D-05 -0.13676876D-05 -0.21666469D-06
 -0.12295038D-04 -0.11891226D-04 -0.37059756D-05 -0.81962523D-05  0.10963150D-04
  0.82740525D-05  0.37761553D-04  0.23745478D-04  0.37616826D-05 -0.46925166D-04
 -0.29507803D-04 -0.46745318D-05  0.15720097D-04  0.98852190D-05  0.15659848D-05
  0.62327877D-05  0.60280809D-05  0.18786895D-05  0.10441205D-04  0.10098279D-04
  0.31471925D-05  0.53249407D-05  0.51500508D-05  0.16050459D-05 -0.95015587D-03
 -0.91894940D-03 -0.28639639D-03  0.97613743D-06  0.94407762D-06  0.29422776D-06
 -0.63624433D-05 -0.61534782D-05 -0.19177704D-05 -0.53149994D-05 -0.51404360D-05
 -0.16020494D-05  0.13245831D-04  0.12810791D-04  0.39925641D-05 -0.52770166D-04
 -0.51037007D-04 -0.15906006D-04
MO    3     MO 0.0        OCC NO =    2.0000000  ORB. ENERGY =  -14.592663
  0.37730164D-05  0.36490972D-05  0.11372642D-05  0.13309571D-05 -0.17802626D-05
 -0.13435908D-05  0.17354012D-05  0.10912669D-05  0.17287501D-06 -0.82258231D-05
 -0.51726183D-05 -0.81942965D-06 -0.15664571D-05 -0.98503028D-06 -0.15604535D-06
 -0.74704148D-03 -0.72250599D-03 -0.22517356D-03 -0.23472417D-03  0.31396254D-03
  0.23695221D-03 -0.14135995D-02 -0.88890930D-03 -0.14081817D-03 -0.12307689D-03
 -0.77394049D-04 -0.12260518D-04 -0.11553388D-03 -0.72650803D-04 -0.11509108D-04
  0.34304092D+01  0.33177424D+01  0.10339954D+01 -0.66094285D-02  0.88406445D-02
  0.66721663D-02 -0.15779102D-02 -0.99223227D-03 -0.15718626D-03 -0.18762274D-02
 -0.11798221D-02 -0.18690365D-03  0.13879224D-03  0.87276285D-04  0.13826030D-04
 -0.30824672D-04 -0.29812281D-04 -0.92911858D-05 -0.47346809D-07  0.63330182D-07
  0.47796233D-07 -0.38735006D-06 -0.24357611D-06 -0.38586548D-07  0.63751230D-06
  0.40088484D-06  0.63506894D-07  0.58184020D-05  0.36587673D-05  0.57961021D-06
  0.77689891D-03  0.75138281D-03  0.23417320D-03 -0.82972819D-04  0.11098285D-03
  0.83760411D-04  0.48488847D-03  0.30491088D-03  0.48303007D-04  0.76486647D-04
  0.48096856D-04  0.76193501D-05  0.47803745D-04  0.30060277D-04  0.47620530D-05
 -0.47720954D-04 -0.46153630D-04 -0.14384070D-04 -0.46564856D-04  0.62284257D-04
  0.47006858D-04 -0.16793592D-04 -0.10560262D-04 -0.16729229D-05  0.29281789D-03
  0.18413175D-03  0.29169562D-04 -0.68802440D-04 -0.43264821D-04 -0.68538745D-05
 -0.99536163D-05 -0.96267043D-05 -0.30002233D-05 -0.96960679D-06  0.12969274D-05
  0.97881046D-06 -0.10467800D-04 -0.65824334D-05 -0.10427680D-05  0.15438826D-04
  0.97083481D-05  0.15379655D-05 -0.46324203D-04 -0.29129902D-04 -0.46146658D-05
  0.14920181D-02  0.14430150D-02  0.44972473D-03  0.10667111D-02 -0.14268122D-02
 -0.10768365D-02  0.32594506D-03  0.20496300D-03  0.32469583D-04 -0.45151090D-02
 -0.28392217D-02 -0.44978042D-03  0.95438874D-03  0.60014525D-03  0.95073091D-04
 -0.52370936D-04 -0.50650889D-04 -0.15785670D-04 -0.29058866D-04  0.38868581D-04
  0.29334698D-04 -0.84921246D-04 -0.53400758D-04 -0.84595773D-05  0.48569919D-04
  0.30542068D-04  0.48383768D-05 -0.36620839D-06 -0.23028166D-06 -0.36480485D-07
 -0.14914501D-05 -0.14424656D-05 -0.44955353D-06 -0.80328635D-04  0.10744604D-03
  0.81091128D-04  0.22191068D-03  0.13954339D-03  0.22106017D-04  0.26422430D-03
  0.16615133D-03  0.26321162D-04 -0.23573608D-04 -0.14823718D-04 -0.23483259D-05
  0.14593777D-02  0.14114466D-02  0.43988624D-03  0.10559849D-02 -0.14124651D-02
 -0.10660085D-02 -0.44298326D-02 -0.27855976D-02 -0.44128546D-03  0.91809524D-03
  0.57732293D-03  0.91457651D-04 -0.75604838D-03 -0.47542351D-03 -0.75315071D-04
  0.21978803D-05  0.21256941D-05  0.66248602D-06 -0.80585472D-05 -0.77938760D-05
 -0.24290107D-05 -0.65386253D-05 -0.63238738D-05 -0.19708752D-05 -0.18729174D-02
 -0.18114042D-02 -0.56453556D-03 -0.39956349D-05 -0.38644041D-05 -0.12043660D-05
  0.10910247D-05  0.10551916D-05  0.32885713D-06  0.14817219D-06  0.14330570D-06
  0.44662126D-07  0.56632721D-04  0.54772702D-04  0.17070259D-04  0.28007194D-05
  0.27087339D-05  0.84419403D-06
MO    4     MO 0.0        OCC NO =    2.0000000  ORB. ENERGY =  -14.572684
  0.79867880D-04  0.77244736D-04  0.24073810D-04  0.10985569D-04 -0.14694086D-04
 -0.11089846D-04  0.46730951D-04  0.29385676D-04  0.46551848D-05  0.20804760D-03
  0.13082592D-03  0.20725023D-04  0.14416164D-03  0.90652710D-04  0.14360912D-04
  0.92490690D-05  0.89452968D-05  0.27878583D-05 -0.57163511D-06  0.76460813D-06
  0.57706116D-06  0.28934489D-04  0.18194783D-04  0.28823594D-05  0.36763755D-04
  0.23118036D-04  0.36622853D-05 -0.82614565D-06 -0.51950255D-06 -0.82297932D-07
  0.30321650D-04  0.29325780D-04  0.91395647D-05 -0.52524490D-05  0.70255748D-05
  0.53023061D-05 -0.18095963D-04 -0.11379227D-04 -0.18026607D-05  0.12200893D-04
  0.76722490D-05  0.12154131D-05  0.10849978D-04  0.68227575D-05  0.10808394D-05
  0.34310420D+01  0.33183545D+01  0.10341861D+01 -0.62992291D-02  0.84257278D-02
  0.63590225D-02 -0.44013526D-02 -0.27676886D-02 -0.43844838D-03 -0.24818378D-02
 -0.15606462D-02 -0.24723258D-03  0.36482853D-02  0.22941397D-02  0.36343027D-03
  0.10933755D-05  0.10574652D-05  0.32956571D-06  0.12650204D-06 -0.16920669D-06
 -0.12770281D-06  0.83861621D-06  0.52734438D-06  0.83540210D-07  0.11221690D-05
  0.70564997D-06  0.11178681D-06  0.79967411D-06  0.50285654D-06  0.79660924D-07
 -0.28401055D-04 -0.27468264D-04 -0.85606582D-05 -0.32587512D-04  0.43588430D-04
  0.32896838D-04  0.25736452D-03  0.16183771D-03  0.25637813D-04 -0.88244019D-04
 -0.55490207D-04 -0.87905811D-05 -0.90048952D-04 -0.56625198D-04 -0.89703827D-05
  0.14679394D-02  0.14197271D-02  0.44246692D-03  0.87108174D-03 -0.11651422D-02
 -0.87935020D-03 -0.33147936D-02 -0.20844312D-02 -0.33020892D-03  0.24267079D-02
  0.15259791D-02  0.24174072D-03  0.14047451D-03  0.88334140D-04  0.13993612D-04
  0.18437902D-04  0.17832336D-04  0.55575604D-05  0.35206388D-05 -0.47091388D-05
 -0.35540573D-05 -0.44732884D-04 -0.28129238D-04 -0.44561438D-05 -0.38154914D-04
 -0.23992834D-04 -0.38008680D-05  0.44972275D-04  0.28279773D-04  0.44799912D-05
 -0.35176625D-05 -0.34021300D-05 -0.10602953D-05 -0.41585110D-04  0.55623444D-04
  0.41979843D-04  0.49765104D-04  0.31293633D-04  0.49574372D-05 -0.18176436D-03
 -0.11429831D-03 -0.18106772D-04  0.19448935D-04  0.12230012D-04  0.19374394D-05
  0.23306371D-05  0.22540908D-05  0.70250164D-06  0.25081086D-05 -0.33547979D-05
 -0.25319160D-05 -0.10622658D-04 -0.66798122D-05 -0.10581945D-05 -0.42591042D-06
 -0.26782390D-06 -0.42427806D-07 -0.82426426D-05 -0.51831949D-05 -0.82110515D-06
  0.86184395D-06  0.83353795D-06  0.25977737D-06  0.10219092D-05 -0.13668861D-05
 -0.10316093D-05 -0.39667880D-05 -0.24944227D-05 -0.39515847D-06 -0.41331317D-06
 -0.25990241D-06 -0.41172909D-07 -0.28479272D-05 -0.17908530D-05 -0.28370121D-06
  0.34887499D-04  0.33741670D-04  0.10515805D-04  0.38765560D-04  0.37492362D-04
  0.11684732D-04  0.91443982D-04  0.88440638D-04  0.27563084D-04 -0.18184212D-04
 -0.17586978D-04 -0.54810929D-05 -0.18892251D-06 -0.18271762D-06 -0.56945102D-07
 -0.19646489D-02 -0.19001229D-02 -0.59218532D-03 -0.19642283D-02 -0.18997161D-02
 -0.59205852D-03  0.35774509D-06  0.34599548D-06  0.10783168D-06 -0.11293658D-04
 -0.10922735D-04 -0.34041393D-05
MO    5     MO 0.0        OCC NO =    2.0000000  ORB. ENERGY =  -14.502627
 -0.10886892D-06 -0.10529328D-06 -0.32815317D-07 -0.45855403D-07  0.61335305D-07
  0.46290670D-07 -0.21710606D-06 -0.13652212D-06 -0.21627397D-07 -0.14140720D-06
 -0.88920640D-07 -0.14086523D-07  0.13144725D-06  0.82657557D-07  0.13094346D-07
 -0.21164778D-06 -0.20469652D-06 -0.63794964D-07  0.13746796D-06 -0.18387450D-06
 -0.13877283D-06 -0.46934591D-06 -0.29513731D-06 -0.46754708D-07 -0.20444597D-05
 -0.12856111D-05 -0.20366240D-06  0.88188331D-06  0.55455189D-06  0.87850336D-07
 -0.95618276D-03 -0.92477834D-03 -0.28821302D-03 -0.91321116D-04  0.12214937D-03
  0.92187951D-04 -0.51530609D-03 -0.32403829D-03 -0.51333110D-04 -0.25582736D-03
 -0.16087111D-03 -0.25484686D-04 -0.16245807D-04 -0.10215799D-04 -0.16183542D-05
 -0.81323164D-06 -0.78652223D-06 -0.24512463D-06  0.11060131D-06 -0.14793818D-06
 -0.11165115D-06 -0.78373704D-06 -0.49283488D-06 -0.78073326D-07  0.46954947D-06
  0.29526531D-06  0.46774986D-07  0.93147709D-06  0.58573779D-06  0.92790707D-07
  0.34314826D+01  0.33187806D+01  0.10343189D+01 -0.61887865D-02  0.82780019D-02
  0.62475315D-02  0.80764273D-02  0.50786742D-02  0.80454732D-03  0.13367208D-02
  0.84056591D-03  0.13315976D-03  0.77176592D-03  0.48530712D-03  0.76880801D-04
 -0.35450366D-05 -0.34286051D-05 -0.10685465D-05 -0.79734608D-05  0.10665148D-04
  0.80491462D-05  0.24408972D-06  0.15349016D-06  0.24315421D-07  0.32175872D-04
  0.20233052D-04  0.32052554D-05 -0.11484284D-04 -0.72216259D-05 -0.11440269D-05
  0.21007289D-05  0.20317335D-05  0.63320259D-06  0.15436556D-05 -0.20647641D-05
 -0.15583083D-05  0.41299679D-05  0.25970346D-05  0.41141392D-06 -0.41851795D-06
 -0.26317532D-06 -0.41691392D-07 -0.45949289D-05 -0.28894146D-05 -0.45773181D-06
 -0.37571869D-04 -0.36337876D-04 -0.11324929D-04 -0.86076392D-04  0.11513413D-03
  0.86893444D-04 -0.43070329D-03 -0.27083778D-03 -0.42905255D-04  0.16176916D-03
  0.10172479D-03  0.16114915D-04 -0.88415450D-04 -0.55598008D-04 -0.88076585D-05
 -0.41720714D-06 -0.40350458D-06 -0.12575475D-06 -0.15947236D-06  0.21330717D-06
  0.16098610D-06 -0.94038475D-06 -0.59133916D-06 -0.93678059D-07 -0.34522139D-06
 -0.21708448D-06 -0.34389828D-07 -0.54019272D-06 -0.33968768D-06 -0.53812235D-07
  0.15526052D-02  0.15016121D-02  0.46798691D-03  0.10868089D-02 -0.14536947D-02
 -0.10971251D-02  0.29489612D-02  0.18543860D-02  0.29376589D-03 -0.36819082D-02
 -0.23152827D-02 -0.36677968D-03  0.11109400D-02  0.69858888D-03  0.11066822D-03
  0.15703880D-02  0.15188109D-02  0.47334703D-03  0.12393445D-02 -0.16577234D-02
 -0.12511086D-02  0.28356950D-02  0.17831611D-02  0.28248268D-03  0.44937683D-02
  0.28258021D-02  0.44765453D-03 -0.53273510D-03 -0.33499813D-03 -0.53069332D-04
 -0.79699379D-06 -0.77081770D-06 -0.24023021D-06 -0.98179535D-05 -0.94954972D-05
 -0.29593317D-05  0.44773116D-06  0.43302609D-06  0.13495532D-06  0.53831298D-05
  0.52063288D-05  0.16225853D-05  0.21205863D-04  0.20509387D-04  0.63918802D-05
  0.58777201D-06  0.56846750D-06  0.17716649D-06  0.15172874D-06  0.14674543D-06
  0.45734142D-07  0.13657454D-04  0.13208895D-04  0.41166355D-05  0.21305373D-07
  0.20605629D-07  0.64218745D-08
MO    6     MO 0.0        OCC NO =    2.0000000  ORB. ENERGY =  -10.541740
  0.21481423D-02  0.20775897D-02  0.64749396D-03  0.12272752D-02 -0.16415797D-02
 -0.12389247D-02  0.55024059D-02  0.34600605D-02  0.54813172D-03  0.81693757D-03
  0.51371226D-03  0.81380654D-04  0.12126523D-02  0.76254829D-03  0.12080046D-03
  0.17163547D-02  0.16599835D-02  0.51734435D-03  0.15509803D-02 -0.20745614D-02
 -0.15657024D-02 -0.30384676D-02 -0.19106700D-02 -0.30268222D-03  0.36598991D-02
  0.23014428D-02  0.36458720D-03  0.23772548D-03  0.14948816D-03  0.23681437D-04
 -0.11413349D-03 -0.11038494D-03 -0.34402164D-04 -0.61599405D-04  0.82394181D-04
  0.62184118D-04  0.12609219D-03  0.79290155D-04  0.12560893D-04  0.26698103D-03
  0.16788483D-03  0.26595778D-04 -0.16320287D-04 -0.10262635D-04 -0.16257738D-05
  0.40304753D-04  0.38981002D-04  0.12148676D-04 -0.44396128D-04  0.59383408D-04
  0.44817544D-04 -0.18385209D-03 -0.11561113D-03 -0.18314746D-04 -0.14016641D-03
 -0.88140402D-04 -0.13962921D-04  0.24520595D-04  0.15419208D-04  0.24426617D-05
 -0.46808744D-06 -0.45271379D-06 -0.14109111D-06  0.15577326D-06 -0.20835932D-06
 -0.15725189D-06  0.26989203D-05  0.16971535D-05  0.26885763D-06  0.29554779D-06
  0.18584838D-06  0.29441506D-07  0.20192418D-06  0.12697534D-06  0.20115027D-07
 -0.61723457D-03 -0.59696240D-03 -0.18604711D-03 -0.29923945D-04  0.40025693D-04
  0.30207988D-04  0.12047610D-04  0.75758604D-05  0.12001436D-05 -0.20483516D-03
 -0.12880585D-03 -0.20405010D-04  0.59610646D-05  0.37484774D-05  0.59382179D-06
 -0.10932292D-01 -0.10573237D-01 -0.32952160D-02  0.94349126D-03 -0.12619958D-02
 -0.95244704D-03 -0.11593004D-02 -0.72899921D-03 -0.11548572D-03 -0.36372362D-02
 -0.22871917D-02 -0.36232960D-03 -0.10081811D-02 -0.63397135D-03 -0.10043171D-03
 -0.18326966D-04 -0.17725044D-04 -0.55241219D-05 -0.11179069D-04  0.14952908D-04
  0.11285183D-04 -0.23927843D-04 -0.15046470D-04 -0.23836136D-05 -0.18928693D-04
 -0.11902870D-04 -0.18856146D-05 -0.14075526D-04 -0.88510682D-05 -0.14021579D-05
  0.26862379D+01  0.25980124D+01  0.80968698D+00 -0.55116575D-02  0.73722872D-02
  0.55639751D-02  0.92176445D-05  0.57963022D-05  0.91823165D-06  0.72799461D-03
  0.45778255D-03  0.72520446D-04  0.17732365D-03  0.11150587D-03  0.17664403D-04
 -0.11533119D-04 -0.11154331D-04 -0.34763178D-05  0.43750522D-05 -0.58519858D-05
 -0.44165809D-05 -0.18507462D-04 -0.11637989D-04 -0.18436529D-05  0.20728479D-05
  0.13034624D-05  0.20649034D-06  0.43197543D-06  0.27163775D-06  0.43031983D-07
 -0.10495019D-05 -0.10150326D-05 -0.31634131D-06  0.31308859D-05 -0.41878128D-05
 -0.31606048D-05 -0.11506818D-04 -0.72357959D-05 -0.11462716D-05 -0.81179439D-05
 -0.51047810D-05 -0.80868307D-06 -0.20532103D-05 -0.12911137D-05 -0.20453411D-06
 -0.93472211D-04 -0.90402253D-04 -0.28174434D-04 -0.44150450D-04 -0.42700393D-04
 -0.13307847D-04 -0.40495822D-04 -0.39165796D-04 -0.12206268D-04 -0.28377344D-03
 -0.27445332D-03 -0.85535111D-04  0.11075180D-05  0.10711432D-05  0.33382855D-06
 -0.38919776D-04 -0.37641513D-04 -0.11731215D-04 -0.46744106D-04 -0.45208864D-04
 -0.14089628D-04  0.42019188D-05  0.40639129D-05  0.12665442D-05 -0.44708198D-03
 -0.43239822D-03 -0.13475964D-03
MO    7     MO 0.0        OCC NO =    2.0000000  ORB. ENERGY =  -10.461949
 -0.64014394D-04 -0.61911935D-04 -0.19295246D-04 -0.63836198D-04  0.85386072D-04
  0.64442142D-04 -0.20509929D-03 -0.12897193D-03 -0.20431321D-04 -0.88033013D-04
 -0.55357521D-04 -0.87695614D-05 -0.64588617D-04 -0.40615056D-04 -0.64341072D-05
 -0.99224724D-04 -0.95965834D-04 -0.29908359D-04 -0.29912380D-04  0.40010225D-04
  0.30196314D-04 -0.42042929D-03 -0.26437722D-03 -0.41881793D-04 -0.34663318D-03
 -0.21797224D-03 -0.34530465D-04 -0.15840611D-03 -0.99610010D-04 -0.15779899D-04
 -0.19523545D-04 -0.18882323D-04 -0.58847953D-05 -0.16672990D-04  0.22301471D-04
  0.16831253D-04 -0.31595182D-04 -0.19867899D-04 -0.31474089D-05  0.72024199D-04
  0.45290749D-04  0.71748156D-05  0.30899373D-04  0.19430355D-04  0.30780947D-05
  0.22250251D-02  0.21519474D-02  0.67066800D-03  0.10630591D-02 -0.14219275D-02
 -0.10731499D-02  0.41402386D-02  0.26034931D-02  0.41243705D-03 -0.31564070D-02
 -0.19848334D-02 -0.31443096D-03 -0.91389667D-04 -0.57468275D-04 -0.91039403D-05
  0.32451026D-05  0.31385220D-05  0.97814021D-06  0.13820489D-05 -0.18486021D-05
 -0.13951675D-05 -0.38317933D-05 -0.24095344D-05 -0.38171074D-06  0.53191202D-05
  0.33448055D-05  0.52987339D-06  0.38677754D-05  0.24321610D-05  0.38529516D-06
 -0.21999499D-01 -0.21276958D-01 -0.66310983D-02  0.10357183D-02 -0.13853569D-02
 -0.10455495D-02 -0.30589562D-02 -0.19235537D-02 -0.30472323D-03 -0.13436091D-02
 -0.84489743D-03 -0.13384595D-03  0.25246678D-02  0.15875788D-02  0.25149916D-03
  0.26842833D+01  0.25961219D+01  0.80909781D+00 -0.63044552D-02  0.84327182D-02
  0.63642982D-02 -0.46064471D-04 -0.28966575D-04 -0.45887922D-05  0.55120564D-03
  0.34661290D-03  0.54909306D-04 -0.53459218D-03 -0.33616591D-03 -0.53254328D-04
 -0.69323217D-03 -0.67046397D-03 -0.20895433D-03 -0.26594333D-04  0.35572069D-04
  0.26846771D-04  0.52516145D-04  0.33023561D-04  0.52314869D-05 -0.69112842D-04
 -0.43460009D-04 -0.68847957D-05 -0.54025655D-05 -0.33972782D-05 -0.53818594D-06
  0.14429490D-01  0.13955575D-01  0.43493431D-02  0.10074938D-02 -0.13476043D-02
 -0.10170571D-02  0.12075427D-02  0.75933525D-03  0.12029146D-03  0.41066745D-02
  0.25823871D-02  0.40909351D-03  0.10864408D-02  0.68318310D-03  0.10822768D-03
 -0.16864745D-04 -0.16310847D-04 -0.50833785D-05  0.44222757D-05 -0.59151510D-05
 -0.44642527D-05 -0.21373077D-04 -0.13439964D-04 -0.21291161D-05  0.14577063D-04
  0.91664481D-05  0.14521194D-05 -0.27015916D-04 -0.16988333D-04 -0.26912374D-05
 -0.94817961D-05 -0.91703803D-05 -0.28580070D-05  0.29715190D-05 -0.39746467D-05
 -0.29997252D-05 -0.11689014D-04 -0.73503659D-05 -0.11644214D-05 -0.38600779D-05
 -0.24273205D-05 -0.38452835D-06 -0.10270481D-04 -0.64583538D-05 -0.10231117D-05
  0.31417485D-04  0.30385624D-04  0.94698717D-05  0.33191051D-04  0.32100939D-04
  0.10004461D-04 -0.22649018D-02 -0.21905144D-02 -0.68268765D-03 -0.56973191D-04
 -0.55101990D-04 -0.17172883D-04  0.15619353D-06  0.15106358D-06  0.47079920D-07
 -0.13412115D-03 -0.12971614D-03 -0.40426854D-04 -0.14563130D-03 -0.14084825D-03
 -0.43896248D-04  0.12545247D-05  0.12133217D-05  0.37813938D-06 -0.35493351D-04
 -0.34327624D-04 -0.10698421D-04
MO    8     MO 0.0        OCC NO =    2.0000000  ORB. ENERGY =  -10.418891
  0.43138013D-05  0.41721208D-05  0.13002678D-05  0.54690922D-05 -0.73153527D-05
 -0.55210058D-05  0.34471728D-05  0.21676748D-05  0.34339610D-06 -0.64254216D-05
 -0.40404775D-05 -0.64007953D-06  0.58882247D-04  0.37026737D-04  0.58656572D-05
 -0.69058572D-04 -0.66790444D-04 -0.20815664D-04 -0.25806164D-04  0.34517829D-04
  0.26051120D-04 -0.18519088D-04 -0.11645299D-04 -0.18448111D-05 -0.88079002D-04
 -0.55386440D-04 -0.87741426D-05 -0.28546039D-04 -0.17950516D-04 -0.28436632D-05
 -0.82928088D-04 -0.80204437D-04 -0.24996220D-04 -0.69119954D-04  0.92453522D-04
  0.69776053D-04  0.19856163D-03  0.12486088D-03  0.19780061D-04 -0.93582512D-04
 -0.58847195D-04 -0.93223844D-05  0.33257482D-04  0.20913197D-04  0.33130018D-05
 -0.13091603D-04 -0.12661628D-04 -0.39460764D-05 -0.37634524D-04  0.50339216D-04
  0.37991757D-04 -0.12620309D-03 -0.79359892D-04 -0.12571940D-04 -0.20792570D-04
 -0.13074926D-04 -0.20712879D-05  0.12580803D-03  0.79111464D-04  0.12532585D-04
  0.37973350D-06  0.36726171D-06  0.11445943D-06 -0.53221424D-05  0.71187954D-05
  0.53726611D-05 -0.92188320D-05 -0.57970489D-05 -0.91834995D-06 -0.13025961D-04
 -0.81910739D-05 -0.12976037D-05  0.24943963D-05  0.15685433D-05  0.24848361D-06
  0.26838676D+01  0.25957199D+01  0.80897251D+00 -0.65635506D-02  0.87792792D-02