 opt isoleucine m062x
GAUSSIAN             36 MOL ORBITALS    174 PRIMITIVES       22 NUCLEI
  O    1    (CENTRE  1)   3.64255546 -1.72442374  2.51019992  CHARGE =  8.0
  O    2    (CENTRE  2)   4.18900979 -1.18430421 -1.81414669  CHARGE =  8.0
  N    3    (CENTRE  3)   1.02200537  3.13062887 -1.94717700  CHARGE =  7.0
  C    4    (CENTRE  4)  -1.53517373  0.38781046  0.99327017  CHARGE =  6.0
  C    5    (CENTRE  5)   1.11222012  1.57945473  0.43171368  CHARGE =  6.0
  C    6    (CENTRE  6)  -2.44875179 -1.21374677 -1.29306573  CHARGE =  6.0
  C    7    (CENTRE  7)  -3.41975431  2.52750341  1.63082845  CHARGE =  6.0
  C    8    (CENTRE  8)  -4.79712151 -2.83194840 -0.67514163  CHARGE =  6.0
  C    9    (CENTRE  9)   3.14771062 -0.55163466  0.18610555  CHARGE =  6.0
  H   10    (CENTRE 10)  -1.31473776 -0.86132338  2.64369716  CHARGE =  1.0
  H   11    (CENTRE 11)   1.63083438  2.81166061  2.02954265  CHARGE =  1.0
  H   12    (CENTRE 12)  -0.90766261 -2.46616643 -1.90099027  CHARGE =  1.0
  H   13    (CENTRE 13)  -2.87368698  0.06520546 -2.87065768  CHARGE =  1.0
  H   14    (CENTRE 14)  -2.80610007  3.54722992  3.32479995  CHARGE =  1.0
  H   15    (CENTRE 15)  -3.49430646  3.85922471  0.04744328  CHARGE =  1.0
  H   16    (CENTRE 16)  -5.31404292  1.76916377  1.97107610  CHARGE =  1.0
  H   17    (CENTRE 17)  -4.41482686 -4.08181677  0.93101562  CHARGE =  1.0
  H   18    (CENTRE 18)  -5.31336333 -4.00111097 -2.30410157  CHARGE =  1.0
  H   19    (CENTRE 19)  -6.41707860 -1.63656273 -0.19919006  CHARGE =  1.0
  H   20    (CENTRE 20)   1.43092645  1.80835919 -3.38593671  CHARGE =  1.0
  H   21    (CENTRE 21)   2.68986049  4.21979720 -1.90909728  CHARGE =  1.0
  H   22    (CENTRE 22)   4.94284821 -3.06287164  2.04194910  CHARGE =  1.0
CENTRE ASSIGNMENTS    1  1  1  1  1  1  1  1  1  1  1  1  1  1  1  2  2  2  2  2
CENTRE ASSIGNMENTS    2  2  2  2  2  2  2  2  2  2  3  3  3  3  3  3  3  3  3  3
CENTRE ASSIGNMENTS    3  3  3  3  3  4  4  4  4  4  4  4  4  4  4  4  4  4  4  4
CENTRE ASSIGNMENTS    5  5  5  5  5  5  5  5  5  5  5  5  5  5  5  6  6  6  6  6
CENTRE ASSIGNMENTS    6  6  6  6  6  6  6  6  6  6  7  7  7  7  7  7  7  7  7  7
CENTRE ASSIGNMENTS    7  7  7  7  7  8  8  8  8  8  8  8  8  8  8  8  8  8  8  8
CENTRE ASSIGNMENTS    9  9  9  9  9  9  9  9  9  9  9  9  9  9  9 10 10 10 11 11
CENTRE ASSIGNMENTS   11 12 12 12 13 13 13 14 14 14 15 15 15 16 16 16 17 17 17 18
CENTRE ASSIGNMENTS   18 18 19 19 19 20 20 20 21 21 21 22 22 22
TYPE ASSIGNMENTS      1  1  1  1  1  1  2  2  2  3  3  3  4  4  4  1  1  1  1  1
TYPE ASSIGNMENTS      1  2  2  2  3  3  3  4  4  4  1  1  1  1  1  1  2  2  2  3
TYPE ASSIGNMENTS      3  3  4  4  4  1  1  1  1  1  1  2  2  2  3  3  3  4  4  4
TYPE ASSIGNMENTS      1  1  1  1  1  1  2  2  2  3  3  3  4  4  4  1  1  1  1  1
TYPE ASSIGNMENTS      1  2  2  2  3  3  3  4  4  4  1  1  1  1  1  1  2  2  2  3
TYPE ASSIGNMENTS      3  3  4  4  4  1  1  1  1  1  1  2  2  2  3  3  3  4  4  4
TYPE ASSIGNMENTS      1  1  1  1  1  1  2  2  2  3  3  3  4  4  4  1  1  1  1  1
TYPE ASSIGNMENTS      1  1  1  1  1  1  1  1  1  1  1  1  1  1  1  1  1  1  1  1
TYPE ASSIGNMENTS      1  1  1  1  1  1  1  1  1  1  1  1  1  1
EXPONENTS  0.1307093D+03 0.2380887D+02 0.6443608D+01 0.5033151D+01 0.1169596D+01
EXPONENTS  0.3803890D+00 0.5033151D+01 0.1169596D+01 0.3803890D+00 0.5033151D+01
EXPONENTS  0.1169596D+01 0.3803890D+00 0.5033151D+01 0.1169596D+01 0.3803890D+00
EXPONENTS  0.1307093D+03 0.2380887D+02 0.6443608D+01 0.5033151D+01 0.1169596D+01
EXPONENTS  0.3803890D+00 0.5033151D+01 0.1169596D+01 0.3803890D+00 0.5033151D+01
EXPONENTS  0.1169596D+01 0.3803890D+00 0.5033151D+01 0.1169596D+01 0.3803890D+00
EXPONENTS  0.9910617D+02 0.1805231D+02 0.4885660D+01 0.3780456D+01 0.8784966D+00
EXPONENTS  0.2857144D+00 0.3780456D+01 0.8784966D+00 0.2857144D+00 0.3780456D+01
EXPONENTS  0.8784966D+00 0.2857144D+00 0.3780456D+01 0.8784966D+00 0.2857144D+00
EXPONENTS  0.7161684D+02 0.1304510D+02 0.3530512D+01 0.2941249D+01 0.6834831D+00
EXPONENTS  0.2222899D+00 0.2941249D+01 0.6834831D+00 0.2222899D+00 0.2941249D+01
EXPONENTS  0.6834831D+00 0.2222899D+00 0.2941249D+01 0.6834831D+00 0.2222899D+00
EXPONENTS  0.7161684D+02 0.1304510D+02 0.3530512D+01 0.2941249D+01 0.6834831D+00
EXPONENTS  0.2222899D+00 0.2941249D+01 0.6834831D+00 0.2222899D+00 0.2941249D+01
EXPONENTS  0.6834831D+00 0.2222899D+00 0.2941249D+01 0.6834831D+00 0.2222899D+00
EXPONENTS  0.7161684D+02 0.1304510D+02 0.3530512D+01 0.2941249D+01 0.6834831D+00
EXPONENTS  0.2222899D+00 0.2941249D+01 0.6834831D+00 0.2222899D+00 0.2941249D+01
EXPONENTS  0.6834831D+00 0.2222899D+00 0.2941249D+01 0.6834831D+00 0.2222899D+00
EXPONENTS  0.7161684D+02 0.1304510D+02 0.3530512D+01 0.2941249D+01 0.6834831D+00
EXPONENTS  0.2222899D+00 0.2941249D+01 0.6834831D+00 0.2222899D+00 0.2941249D+01
EXPONENTS  0.6834831D+00 0.2222899D+00 0.2941249D+01 0.6834831D+00 0.2222899D+00
EXPONENTS  0.7161684D+02 0.1304510D+02 0.3530512D+01 0.2941249D+01 0.6834831D+00
EXPONENTS  0.2222899D+00 0.2941249D+01 0.6834831D+00 0.2222899D+00 0.2941249D+01
EXPONENTS  0.6834831D+00 0.2222899D+00 0.2941249D+01 0.6834831D+00 0.2222899D+00
EXPONENTS  0.7161684D+02 0.1304510D+02 0.3530512D+01 0.2941249D+01 0.6834831D+00
EXPONENTS  0.2222899D+00 0.2941249D+01 0.6834831D+00 0.2222899D+00 0.2941249D+01
EXPONENTS  0.6834831D+00 0.2222899D+00 0.2941249D+01 0.6834831D+00 0.2222899D+00
EXPONENTS  0.3425251D+01 0.6239137D+00 0.1688554D+00 0.3425251D+01 0.6239137D+00
EXPONENTS  0.1688554D+00 0.3425251D+01 0.6239137D+00 0.1688554D+00 0.3425251D+01
EXPONENTS  0.6239137D+00 0.1688554D+00 0.3425251D+01 0.6239137D+00 0.1688554D+00
EXPONENTS  0.3425251D+01 0.6239137D+00 0.1688554D+00 0.3425251D+01 0.6239137D+00
EXPONENTS  0.1688554D+00 0.3425251D+01 0.6239137D+00 0.1688554D+00 0.3425251D+01
EXPONENTS  0.6239137D+00 0.1688554D+00 0.3425251D+01 0.6239137D+00 0.1688554D+00
EXPONENTS  0.3425251D+01 0.6239137D+00 0.1688554D+00 0.3425251D+01 0.6239137D+00
EXPONENTS  0.1688554D+00 0.3425251D+01 0.6239137D+00 0.1688554D+00
MO    1     MO 0.0        OCC NO =    2.0000000  ORB. ENERGY =  -19.431406
  0.42264870D+01  0.40876742D+01  0.12739495D+01 -0.63872629D-02  0.85434801D-02
  0.64478919D-02  0.25162514D-02  0.15822864D-02  0.25066075D-03 -0.11185864D-02
 -0.70339717D-03 -0.11142993D-03 -0.64748305D-02 -0.40715472D-02 -0.64500148D-03
  0.36276436D-02  0.35084990D-02  0.10934459D-02 -0.51749663D-04  0.69219355D-04
  0.52240880D-04  0.47129042D-03  0.29636006D-03  0.46948413D-04 -0.69534661D-03
 -0.43725261D-03 -0.69268159D-04  0.62442711D-03  0.39265652D-03  0.62203390D-04
  0.64984467D-05  0.62850148D-05  0.19587646D-05 -0.20808108D-05  0.27832526D-05
  0.21005622D-05 -0.55121976D-04 -0.34662178D-04 -0.54910714D-05  0.37408640D-04
  0.23523557D-04  0.37265266D-05 -0.13342377D-04 -0.83900448D-05 -0.13291241D-05
 -0.41343364D-04 -0.39985502D-04 -0.12461734D-04 -0.16521955D-04  0.22099449D-04
  0.16678784D-04  0.14464319D-04  0.90955521D-05  0.14408883D-05 -0.65986872D-04
 -0.41494316D-04 -0.65733968D-05  0.25850227D-04  0.16255317D-04  0.25751153D-05
 -0.57033129D-04 -0.55159960D-04 -0.17190950D-04 -0.46144111D-04  0.61721477D-04
  0.46582119D-04  0.11811083D-03  0.74271257D-04  0.11765815D-04 -0.12378734D-03
 -0.77840803D-04 -0.12331291D-04  0.21492101D-03  0.13514810D-03  0.21409729D-04
  0.53805570D-05  0.52038405D-05  0.16218098D-05  0.49632433D-05 -0.66387388D-05
 -0.50103552D-05 -0.32222381D-05 -0.20262298D-05 -0.32098884D-06 -0.14658045D-05
 -0.92173721D-06 -0.14601866D-06  0.45192000D-05  0.28417942D-05  0.45018795D-06
 -0.10197517D-05 -0.98625947D-06 -0.30737400D-06 -0.54157772D-06  0.72440395D-06
  0.54671847D-06  0.43498997D-05  0.27353336D-05  0.43332280D-06 -0.20950530D-05
 -0.13174255D-05 -0.20870234D-06 -0.14017430D-05 -0.88145362D-06 -0.13963706D-06
  0.38531322D-06  0.37265817D-06  0.11614127D-06  0.11328692D-06 -0.15153041D-06
 -0.11436226D-06  0.11234377D-06  0.70644780D-07  0.11191320D-07  0.24945556D-05
  0.15686435D-05  0.24849949D-06 -0.11736746D-05 -0.73803807D-06 -0.11691763D-06
  0.14602607D-02  0.14123006D-02  0.44015241D-03  0.73206679D-03 -0.97919848D-03
 -0.73901570D-03 -0.68900067D-03 -0.43326211D-03 -0.68635998D-04  0.17465514D-02
  0.10982784D-02  0.17398575D-03 -0.36484524D-02 -0.22942448D-02 -0.36344692D-03
 -0.50577556D-04 -0.48916410D-04 -0.15245109D-04 -0.31126003D-04 -0.30103715D-04
 -0.93820131D-05  0.12420379D-04  0.12012449D-04  0.37437558D-05  0.22676366D-05
  0.21931594D-05  0.68351198D-06  0.11614190D-05  0.11232739D-05  0.35007541D-06
  0.77126259D-06  0.74593160D-06  0.23247430D-06  0.59511828D-06  0.57557249D-06
  0.17938081D-06  0.17575282D-05  0.16998047D-05  0.52975489D-06 -0.13977463D-06
 -0.13518394D-06 -0.42130928D-07 -0.99101336D-07 -0.95846498D-07 -0.29871167D-07
 -0.24420009D-04 -0.23617969D-04 -0.73606894D-05 -0.88358216D-06 -0.85456220D-06
 -0.26632971D-06 -0.16145604D-02 -0.15615326D-02 -0.48666149D-03
MO    2     MO 0.0        OCC NO =    2.0000000  ORB. ENERGY =  -19.377272
 -0.39452105D-02 -0.38156359D-02 -0.11891670D-02 -0.59553882D-04  0.79658128D-04
  0.60119178D-04  0.51593053D-03  0.32443096D-03  0.51395315D-04 -0.42652977D-03
 -0.26821337D-03 -0.42489504D-04 -0.57326355D-03 -0.36048350D-03 -0.57106643D-04
  0.42267518D+01  0.40879304D+01  0.12740293D+01 -0.64144885D-02  0.85798966D-02
  0.64753759D-02 -0.42703888D-02 -0.26853350D-02 -0.42540219D-03  0.25862047D-02
  0.16262749D-02  0.25762927D-03  0.82076553D-02  0.51611939D-02  0.81761983D-03
 -0.54818415D-04 -0.53017984D-04 -0.16523390D-04 -0.26009659D-04  0.34790020D-04
  0.26256547D-04  0.77285805D-04  0.48599388D-04  0.76989596D-05 -0.96379116D-04
 -0.60605775D-04 -0.96009729D-05 -0.21494800D-03 -0.13516507D-03 -0.21412418D-04
 -0.12071525D-04 -0.11675053D-04 -0.36386041D-05 -0.39466070D-05  0.52789057D-05
  0.39840689D-05  0.21173675D-04  0.13314575D-04  0.21092524D-05  0.23359254D-06
  0.14688926D-06  0.23269726D-07  0.78067464D-05  0.49090917D-05  0.77768260D-06
 -0.56004194D-04 -0.54164818D-04 -0.16880808D-04 -0.25695297D-04  0.34369536D-04
  0.25939201D-04  0.10060750D-03  0.63264694D-04  0.10022190D-04  0.29836768D-05
  0.18762160D-05  0.29722414D-06 -0.41035041D-03 -0.25803935D-03 -0.40877768D-04
 -0.20181042D-04 -0.19518226D-04 -0.60829784D-05 -0.55149546D-05  0.73766973D-05
  0.55673035D-05  0.46698443D-04  0.29365234D-04  0.46519464D-05 -0.61712047D-05
 -0.38806191D-05 -0.61475527D-06  0.35836641D-05  0.22535042D-05  0.35699292D-06
 -0.25493657D-05 -0.24656355D-05 -0.76843089D-06 -0.83136223D-06  0.11120141D-05
  0.83925366D-06  0.61473645D-05  0.38656278D-05  0.61238039D-06 -0.23963581D-05
 -0.15068943D-05 -0.23871737D-06  0.11285652D-05  0.70967210D-06  0.11242398D-06
 -0.76472249D-06 -0.73960630D-06 -0.23050298D-06 -0.70724820D-06  0.94600161D-06
  0.71396153D-06 -0.12762727D-06 -0.80255455D-07 -0.12713812D-07  0.53420562D-05
  0.33592283D-05  0.53215820D-06 -0.15618445D-05 -0.98212973D-06 -0.15558585D-06
  0.16447085D-02  0.15906904D-02  0.49574873D-03  0.11874340D-02 -0.15882889D-02
 -0.11987054D-02 -0.26134773D-02 -0.16434247D-02 -0.26034608D-03  0.15974474D-02
  0.10045178D-02  0.15913250D-03  0.49878555D-02  0.31364974D-02  0.49687388D-03
 -0.89028048D-05 -0.86104052D-05 -0.26834872D-05  0.82944094D-05  0.80219917D-05
  0.25001044D-05 -0.36536789D-05 -0.35336791D-05 -0.11012934D-05  0.34013934D-05
  0.32896797D-05  0.10252495D-05  0.68289831D-06  0.66046952D-06  0.20583950D-06
  0.13923032D-06  0.13465751D-06  0.41966864D-07  0.55855547D-06  0.54021054D-06
  0.16836003D-06  0.56498845D-06  0.54643223D-06  0.17029906D-06  0.47071025D-07
  0.45525047D-07  0.14188169D-07 -0.26350455D-06 -0.25485013D-06 -0.79425653D-07
 -0.12081712D-03 -0.11684906D-03 -0.36416748D-04 -0.32936437D-05 -0.31854688D-05
 -0.99277148D-06 -0.34375107D-04 -0.33246107D-04 -0.10361360D-04
MO    3     MO 0.0        OCC NO =    2.0000000  ORB. ENERGY =  -14.541826
  0.26006525D-04  0.25152378D-04  0.78388977D-05  0.46887637D-05 -0.62716002D-05
 -0.47332703D-05  0.70283878D-04  0.44196388D-04  0.70014504D-05 -0.62128632D-04
 -0.39068151D-04 -0.61890515D-05 -0.30366718D-04 -0.19095407D-04 -0.30250333D-05
 -0.12535046D-03 -0.12123350D-03 -0.37783188D-04 -0.25683307D-04  0.34353499D-04
  0.25927098D-04 -0.11448991D-03 -0.71994329D-04 -0.11405111D-04  0.13514314D-03
  0.84981632D-04  0.13462518D-04 -0.23940167D-03 -0.15054220D-03 -0.23848413D-04
  0.34310504D+01  0.33183626D+01  0.10341887D+01 -0.62906371D-02  0.84142354D-02
  0.63503490D-02  0.54650367D-02  0.34365617D-02  0.54440911D-03 -0.32342480D-02
 -0.20337820D-02 -0.32218523D-03  0.56304373D-03  0.35405701D-03  0.56088578D-04
 -0.50779922D-05 -0.49112130D-05 -0.15306106D-05 -0.37158926D-04  0.49703065D-04
  0.37511645D-04  0.77599909D-04  0.48796905D-04  0.77302496D-05  0.50127447D-04
  0.31521484D-04  0.49935326D-05 -0.94528852D-04 -0.59442279D-04 -0.94166557D-05
  0.14742230D-02  0.14258043D-02  0.44436093D-03  0.87041012D-03 -0.11642439D-02
 -0.87867220D-03  0.18430922D-04  0.11589858D-04  0.18360283D-05 -0.22199007D-02
 -0.13959331D-02 -0.22113926D-03  0.34211547D-02  0.21513139D-02  0.34080426D-03
 -0.15918871D-04 -0.15396039D-04 -0.47982730D-05 -0.55508428D-05  0.74247006D-05
  0.56035323D-05  0.15434162D-04  0.97054153D-05  0.15375008D-05  0.16488501D-04
  0.10368412D-04  0.16425307D-05 -0.43551874D-04 -0.27386587D-04 -0.43384955D-05
 -0.42532680D-04 -0.41135757D-04 -0.12820219D-04 -0.27594424D-04  0.36909771D-04
  0.27856355D-04 -0.18154553D-04 -0.11416070D-04 -0.18084973D-05  0.70826537D-04
  0.44537627D-04  0.70555084D-05 -0.39478981D-04 -0.24825443D-04 -0.39327672D-05
  0.74831018D-06  0.72373303D-06  0.22555597D-06  0.83438590D-07 -0.11160586D-06
 -0.84230604D-07 -0.29151778D-05 -0.18331420D-05 -0.29040050D-06  0.80982000D-05
  0.50923655D-05  0.80671625D-06  0.38800529D-05  0.24398814D-05  0.38651820D-06
 -0.58793643D-04 -0.56862652D-04 -0.17721605D-04 -0.64747634D-04  0.86605191D-04
  0.65362230D-04 -0.94981527D-04 -0.59726933D-04 -0.94617497D-05  0.19532264D-03
  0.12282412D-03  0.19457404D-04 -0.19545458D-03 -0.12290708D-03 -0.19470547D-04
 -0.29234631D-04 -0.28274462D-04 -0.88119149D-05  0.11140836D-03  0.10774932D-03
  0.33580755D-04  0.33421780D-04  0.32324091D-04  0.10074007D-04 -0.26473787D-04
 -0.25604294D-04 -0.79797400D-05 -0.63362810D-05 -0.61281751D-05 -0.19098845D-05
 -0.96900491D-04 -0.93717937D-04 -0.29207787D-04 -0.30428953D-05 -0.29429559D-05
 -0.91719080D-06  0.10512254D-05  0.10166994D-05  0.31686080D-06  0.33288004D-06
  0.32194708D-06  0.10033684D-06  0.24400767D-06  0.23599360D-06  0.73548896D-07
 -0.19629986D-02 -0.18985268D-02 -0.59168787D-03 -0.19643619D-02 -0.18998453D-02
 -0.59209880D-03 -0.17081942D-05 -0.16520910D-05 -0.51488462D-06
MO    4     MO 0.0        OCC NO =    2.0000000  ORB. ENERGY =  -10.482487
  0.21540862D-02  0.20833384D-02  0.64928557D-03  0.11744105D-02 -0.15708689D-02
 -0.11855582D-02  0.13999141D-02  0.88030354D-03  0.13945487D-03 -0.28016433D-02
 -0.17617485D-02 -0.27909056D-03  0.46756989D-02  0.29402049D-02  0.46577786D-03
  0.16885467D-02  0.16330888D-02  0.50896245D-03  0.16248761D-02 -0.21734030D-02
 -0.16402997D-02  0.19041740D-02  0.11973957D-02  0.18968759D-03 -0.10938178D-02
 -0.68782198D-03 -0.10896256D-03 -0.38688956D-02 -0.24328654D-02 -0.38540675D-03
 -0.10555214D-03 -0.10208544D-03 -0.31815571D-04 -0.10135898D-03  0.13557582D-03
  0.10232109D-03  0.13786038D-04  0.86690309D-05  0.13733201D-05 -0.13126715D-03
 -0.82544305D-04 -0.13076405D-04 -0.35639158D-04 -0.22410859D-04 -0.35502566D-05
 -0.10010437D-02 -0.96816588D-03 -0.30173502D-03 -0.21221526D-04  0.28385506D-04
  0.21422965D-04 -0.14189689D-03 -0.89228575D-04 -0.14135305D-04  0.18765223D-03
  0.11800076D-03  0.18693302D-04  0.76703605D-04  0.48233285D-04  0.76409628D-05
 -0.14664347D-01 -0.14182718D-01 -0.44201336D-02  0.97172763D-03 -0.12997642D-02
 -0.98095144D-03 -0.27864693D-02 -0.17522067D-02 -0.27757897D-03  0.28333191D-02
  0.17816671D-02  0.28224600D-03  0.50480046D-03  0.31743208D-03  0.50286574D-04
  0.26961856D-03  0.26076334D-03  0.81268542D-04 -0.57270309D-04  0.76603665D-04
  0.57813929D-04  0.53997080D-04  0.33954813D-04  0.53790129D-05 -0.14661260D-03
 -0.92193938D-04 -0.14605069D-04 -0.10887267D-03 -0.68462058D-04 -0.10845540D-04
 -0.22748729D-03 -0.22001580D-03 -0.68569315D-04  0.22863644D-04 -0.30581971D-04
 -0.23080670D-04 -0.93831267D-04 -0.59003619D-04 -0.93471645D-05  0.34498692D-04
  0.21693703D-04  0.34366470D-05  0.31388038D-04  0.19737640D-04  0.31267738D-05
 -0.12411169D-04 -0.12003542D-04 -0.37409798D-05  0.63317279D-05 -0.84691976D-05
 -0.63918298D-05  0.19972861D-06  0.12559471D-06  0.19896312D-07 -0.19852887D-04
 -0.12484028D-04 -0.19776798D-05  0.16795512D-04  0.10561469D-04  0.16731141D-05
  0.26861479D+01  0.25979254D+01  0.80965986D+00 -0.55307592D-02  0.73978372D-02
  0.55832581D-02  0.28194957D-03  0.17729746D-03  0.28086896D-04 -0.31614736D-03
 -0.19880194D-03 -0.31493567D-04 -0.58683603D-03 -0.36901824D-03 -0.58458689D-04
 -0.67179046D-04 -0.64972649D-04 -0.20249137D-04 -0.20410991D-04 -0.19740622D-04
 -0.61522897D-05 -0.24770694D-03 -0.23957137D-03 -0.74663930D-04 -0.36496807D-06
 -0.35298123D-06 -0.11000883D-06  0.28139550D-05  0.27215348D-05  0.84818352D-06
 -0.22112616D-05 -0.21386360D-05 -0.66651941D-06 -0.19952076D-05 -0.19296779D-05
 -0.60139633D-06  0.34035220D-05  0.32917383D-05  0.10258911D-05  0.46698206D-05
  0.45164472D-05  0.14075793D-05  0.28856834D-05  0.27909074D-05  0.86980393D-06
 -0.18186652D-03 -0.17589338D-03 -0.54818283D-04 -0.57706775D-04 -0.55811481D-04
 -0.17394001D-04 -0.44188664D-03 -0.42737352D-03 -0.13319366D-03
MO    5     MO 0.0        OCC NO =    2.0000000  ORB. ENERGY =  -10.420270
 -0.44169144D-04 -0.42718473D-04 -0.13313482D-04 -0.55852965D-04  0.74707853D-04
  0.56383131D-04 -0.26806066D-04 -0.16856374D-04 -0.26703328D-05  0.11945406D-03
  0.75115919D-04  0.11899624D-04 -0.12257449D-03 -0.77078130D-04 -0.12210471D-04
 -0.90470219D-04 -0.87498857D-04 -0.27269572D-04 -0.39845075D-04  0.53296007D-04
  0.40223292D-04 -0.32201966D-03 -0.20249461D-03 -0.32078548D-04  0.39151374D-03
  0.24619435D-03  0.39001321D-04 -0.93306537D-04 -0.58673655D-04 -0.92948927D-05
  0.22503973D-02  0.21764863D-02  0.67831570D-03  0.10666109D-02 -0.14266782D-02
 -0.10767353D-02  0.21982770D-04  0.13823356D-04  0.21898518D-05  0.27483676D-02
  0.17282473D-02  0.27378341D-03 -0.44232979D-02 -0.27814884D-02 -0.44063450D-03
 -0.29183505D-01 -0.28225016D-01 -0.87965046D-02  0.10722827D-02 -0.14342647D-02
 -0.10824610D-02 -0.37812528D-02 -0.23777532D-02 -0.37667606D-03 -0.17154917D-02
 -0.10787472D-02 -0.17089168D-03  0.82751722D-03  0.52036503D-03  0.82434564D-04
  0.26841274D+01  0.25959711D+01  0.80905081D+00 -0.63280642D-02  0.84642971D-02
  0.63881313D-02  0.23228081D-03  0.14606441D-03  0.23139056D-04  0.46705027D-04
  0.29369374D-04  0.46526023D-05  0.39925260D-03  0.25106075D-03  0.39772241D-04
 -0.16086474D-02 -0.15558137D-02 -0.48487919D-03 -0.28905615D-04  0.38663596D-04
  0.29179992D-04 -0.90534970D-04 -0.56930819D-04 -0.90187982D-05 -0.45441073D-04
 -0.28574566D-04 -0.45266914D-05  0.11752449D-03  0.73902556D-04  0.11707407D-04
 -0.14971975D-02 -0.14480243D-02 -0.45128592D-03 -0.29069726D-04  0.38883106D-04
  0.29345660D-04 -0.10667235D-03 -0.67078435D-04 -0.10626351D-04 -0.15901178D-03
 -0.99990877D-04 -0.15840235D-04 -0.64681277D-05 -0.40673322D-05 -0.64433376D-06
 -0.49652830D-03 -0.48022056D-03 -0.14966377D-03  0.18365175D-04 -0.24564905D-04
 -0.18539500D-04 -0.50765196D-04 -0.31922517D-04 -0.50570631D-05 -0.65788959D-04
 -0.41369863D-04 -0.65536813D-05 -0.30986713D-04 -0.19485276D-04 -0.30867952D-05
  0.18187830D-01  0.17590478D-01  0.54821836D-02  0.99891034D-03 -0.13361233D-02
 -0.10083922D-02  0.29789057D-02  0.18732159D-02  0.29674887D-03 -0.31737485D-02
 -0.19957382D-02 -0.31615846D-03 -0.29903539D-03 -0.18804148D-03 -0.29788929D-04
  0.45834246D-04  0.44328888D-04  0.13815378D-04 -0.22742010D-02 -0.21995082D-02
 -0.68549063D-03 -0.31290039D-04 -0.30262363D-04 -0.94314569D-05 -0.21757789D-05
 -0.21043186D-05 -0.65582421D-06  0.23018154D-04  0.22262156D-04  0.69381416D-05
 -0.30605928D-04 -0.29600721D-04 -0.92252518D-05 -0.43385629D-04 -0.41960692D-04
 -0.13077315D-04  0.47720919D-06  0.46153596D-06  0.14384060D-06 -0.23857089D-05
 -0.23073538D-05 -0.71910138D-06  0.14514339D-05  0.14037637D-05  0.43749182D-06
 -0.14077812D-03 -0.13615447D-03 -0.42433402D-04 -0.12481827D-03 -0.12071880D-03
 -0.37622776D-04 -0.37135521D-04 -0.35915859D-04 -0.11193405D-04
MO    6     MO 0.0        OCC NO =    2.0000000  ORB. ENERGY =  -10.388076
 -0.84168841D-04 -0.81404439D-04 -0.25370208D-04 -0.27391989D-04  0.36638998D-04
  0.27651998D-04 -0.13500699D-03 -0.84896016D-04 -0.13448955D-04  0.60320797D-04
  0.37931336D-04  0.60089609D-05 -0.20388140D-04 -0.12820610D-04 -0.20310000D-05
 -0.23824196D-04 -0.23041725D-04 -0.71810993D-05 -0.51579713D-05  0.68992034D-05
  0.52069317D-05 -0.63022567D-04 -0.39630281D-04 -0.62781024D-05 -0.16374827D-04
 -0.10296931D-04 -0.16312068D-05  0.26449584D-04  0.16632208D-04  0.26348212D-05
  0.69897420D-04  0.67601742D-04  0.21068510D-04 -0.22074372D-04  0.29526256D-04
  0.22283906D-04  0.12555765D-03  0.78954017D-04  0.12507643D-04  0.14429004D-04
  0.90733451D-05  0.14373703D-05  0.58717043D-04  0.36922852D-04  0.58492001D-05
  0.26824331D+01  0.25943325D+01  0.80854013D+00 -0.64840936D-02  0.86729990D-02
  0.65456417D-02  0.29902409D-04  0.18803437D-04  0.29787803D-05 -0.16548139D-03
 -0.10405914D-03 -0.16484715D-04  0.24301625D-03  0.15281514D-03  0.24208486D-04
  0.32605222D-01  0.31534351D-01  0.98278798D-02  0.95121290D-03 -0.12723241D-02
 -0.96024197D-03  0.38557074D-02  0.24245723D-02  0.38409298D-03  0.17207643D-02
  0.10820628D-02  0.17141692D-03 -0.79481283D-03 -0.49979964D-03 -0.79176659D-04
 -0.77302192D-01 -0.74763314D-01 -0.23300459D-01  0.12181124D-02 -0.16293237D-02
 -0.12296749D-02 -0.13590795D-02 -0.85462564D-03 -0.13538706D-03 -0.23423515D-02
 -0.14729335D-02 -0.23333741D-03 -0.33350550D-02 -0.20971721D-02 -0.33222729D-03
 -0.37717030D-01 -0.36478269D-01 -0.11368683D-01  0.11401320D-02 -0.15250187D-02
 -0.11509543D-02 -0.27868553D-02 -0.17524494D-02 -0.27761743D-03  0.31920749D-02
  0.20072624D-02  0.31798408D-03  0.92551011D-03  0.58198560D-03  0.92196296D-04
 -0.23454881D-02 -0.22684540D-02 -0.70697803D-03 -0.46955362D-04  0.62806590D-04
  0.47401070D-04  0.12759811D-03  0.80237118D-04  0.12710908D-04  0.52053778D-04
  0.32732812D-04  0.51854274D-05 -0.11397727D-03 -0.71671963D-04 -0.11354043D-04
  0.14462019D-02  0.13987035D-02  0.43591480D-03  0.72303838D-05 -0.96712224D-05
 -0.72990158D-05  0.59380411D-04  0.37339996D-04  0.59152827D-05  0.72386150D-04
  0.45518353D-04  0.72108719D-05 -0.14941646D-04 -0.93957082D-05 -0.14884380D-05
 -0.22753434D-02 -0.22006131D-02 -0.68583497D-03  0.56490147D-05  0.54634811D-05
  0.17027284D-05  0.95522685D-04  0.92385383D-04  0.28792488D-04  0.79663064D-04
  0.77046647D-04  0.24012075D-04  0.63711560D-04  0.61619047D-04  0.19203966D-04
  0.44287861D-04  0.42833291D-04  0.13349266D-04  0.62079569D-04  0.60040657D-04
  0.18712050D-04  0.13192653D-04  0.12759360D-04  0.39765351D-05 -0.35147442D-04
 -0.33993076D-04 -0.10594157D-04 -0.94700524D-05 -0.91590223D-05 -0.28544672D-05
  0.23000183D-05  0.22244776D-05  0.69327250D-06 -0.41177153D-04 -0.39824750D-04
 -0.12411635D-04  0.37477389D-05  0.36246499D-05  0.11296451D-05
MO    7     MO 0.0        OCC NO =    2.0000000  ORB. ENERGY =  -10.375756
  0.21793671D-05  0.21077890D-05  0.65690576D-06  0.30154050D-05 -0.40333478D-05
 -0.30440277D-05 -0.20754736D-04 -0.13051135D-04 -0.20675190D-05 -0.82399023D-05
 -0.51814717D-05 -0.82083217D-06  0.17624845D-04  0.11082975D-04  0.17557295D-05
 -0.46971370D-04 -0.45428665D-04 -0.14158130D-04 -0.94184791D-05  0.12597977D-04
  0.95078809D-05 -0.98888326D-04 -0.62183633D-04 -0.98509322D-05 -0.41130986D-04
 -0.25864268D-04 -0.40973346D-05 -0.54890417D-04 -0.34516567D-04 -0.54680042D-05
 -0.23641911D-04 -0.22865427D-04 -0.71261550D-05 -0.15687880D-04  0.20983807D-04
  0.15836792D-04 -0.11262340D-04 -0.70820617D-05 -0.11219176D-05  0.33777914D-04
  0.21240459D-04  0.33648456D-05 -0.60811908D-05 -0.38240159D-05 -0.60578837D-06
  0.80337606D-01  0.77699035D-01  0.24215395D-01  0.82749475D-03 -0.11068411D-02
 -0.83534948D-03  0.13229440D-02  0.83190270D-03  0.13178736D-03  0.23647581D-02
  0.14870234D-02  0.23556948D-03  0.33421374D-02  0.21016257D-02  0.33293282D-03
  0.26770575D-02  0.25891335D-02  0.80691982D-03  0.37052086D-05 -0.49560159D-05
 -0.37403791D-05  0.76437178D-04  0.48065749D-04  0.76144221D-05  0.87265104D-04
  0.54874639D-04  0.86930648D-05  0.89990294D-04  0.56588312D-04  0.89645393D-05
  0.26774393D+01  0.25895027D+01  0.80703489D+00 -0.65753848D-02  0.87951083D-02
  0.66377995D-02 -0.50249834D-04 -0.31598444D-04 -0.50057244D-05 -0.27360255D-03
 -0.17204862D-03 -0.27255393D-04 -0.45079863D-03 -0.28347427D-03 -0.44907088D-04
 -0.87956106D-02 -0.85067317D-02 -0.26511767D-02  0.31090208D-04 -0.41585665D-04
 -0.31385322D-04 -0.21246368D-04 -0.13360286D-04 -0.21164938D-05  0.98623062D-04
  0.62016828D-04  0.98245075D-05  0.11746963D-03  0.73868053D-04  0.11701941D-04
 -0.16825645D+00 -0.16273031D+00 -0.50715931D-01  0.14613126D-02 -0.19546236D-02
 -0.14751836D-02 -0.34711782D-02 -0.21827700D-02 -0.34578744D-03 -0.23973119D-02
 -0.15074940D-02 -0.23881238D-03  0.91573633D-03  0.57583958D-03  0.91222664D-04
 -0.33876659D-03 -0.32764030D-03 -0.10211117D-03 -0.19803293D-04  0.26488504D-04
  0.19991269D-04 -0.41796119D-04 -0.26282521D-04 -0.41635929D-05 -0.46775426D-04
 -0.29413643D-04 -0.46596152D-05 -0.15250117D-04 -0.95896830D-05 -0.15191669D-05
 -0.45889494D-04 -0.44382321D-04 -0.13832031D-04 -0.39025224D-04 -0.37743498D-04
 -0.11763000D-04 -0.22733271D-02 -0.21986630D-02 -0.68522723D-03 -0.22655314D-02
 -0.21911233D-02 -0.68287743D-03 -0.28456178D-04 -0.27521576D-04 -0.85772732D-05
  0.26743030D-04  0.25864695D-04  0.80608956D-05 -0.15580459D-04 -0.15068742D-04
 -0.46962686D-05  0.16519102D-03  0.15976556D-03  0.49791947D-04  0.17943208D-03
  0.17353890D-03  0.54084494D-04  0.16886027D-03  0.16331430D-03  0.50897933D-04
 -0.72809045D-05 -0.70417739D-05 -0.21946133D-05 -0.44994028D-05 -0.43516265D-05
 -0.13562119D-05  0.23927696D-05  0.23141826D-05  0.72122963D-06
MO    8     MO 0.0        OCC NO =    2.0000000  ORB. ENERGY =  -10.370034
  0.90480987D-06  0.87509272D-06  0.27272818D-06  0.57582078D-06 -0.77020681D-06
 -0.58128657D-06 -0.25821668D-05 -0.16237358D-05 -0.25722703D-06 -0.25373184D-05
 -0.15955339D-05 -0.25275938D-06  0.24574505D-05  0.15453108D-05  0.24480319D-06
 -0.38527157D-05 -0.37261789D-05 -0.11612872D-05 -0.13669668D-05  0.18284285D-05
  0.13799423D-05 -0.54027494D-05 -0.33973938D-05 -0.53820426D-06  0.20672540D-05
  0.12999448D-05  0.20593310D-06  0.44420562D-06  0.27932841D-06  0.44250313D-07
  0.93996701D-06  0.90909517D-06  0.28332526D-06 -0.36921261D-05  0.49385170D-05
  0.37271724D-05  0.29752136D-04  0.18708941D-04  0.29638107D-05  0.98147541D-05
  0.61717807D-05  0.97771376D-06 -0.12778959D-05 -0.80357522D-06 -0.12729982D-06
  0.75138807D-02  0.72670982D-02  0.22648371D-02  0.25988614D-04 -0.34761871D-04
 -0.26235303D-04  0.14623651D-03  0.91957441D-04  0.14567604D-04  0.13124758D-03
  0.82532000D-04  0.13074455D-04  0.14835179D-03  0.93287586D-04  0.14778321D-04
  0.77068950D-03  0.74537734D-03  0.23230156D-03  0.14998716D-04 -0.20061994D-04
 -0.15141086D-04  0.66877372D-04  0.42054286D-04  0.66621054D-05  0.49539937D-04
  0.31152042D-04  0.49350068D-05  0.46128907D-04  0.29007095D-04  0.45952111D-05
  0.17162202D+00  0.16598534D+00  0.51730381D-01  0.61905648D-03 -0.82803805D-03
 -0.62493267D-03  0.34882564D-02  0.21935092D-02  0.34748872D-03  0.23848432D-02
  0.14996534D-02  0.23757029D-03 -0.94450207D-03 -0.59392825D-03 -0.94088213D-04
 -0.17788195D-02 -0.17203968D-02 -0.53617254D-03  0.62469326D-05 -0.83557770D-05
 -0.63062295D-05  0.30528851D-04  0.19197361D-04  0.30411845D-05  0.18260634D-04
  0.11482776D-04  0.18190647D-05 -0.30188247D-04 -0.18983180D-04 -0.30072546D-05
  0.26787601D+01  0.25907802D+01  0.80743302D+00 -0.65605862D-02  0.87753141D-02
  0.66228605D-02 -0.52129219D-03 -0.32780252D-03 -0.51929427D-04 -0.37610977D-03
 -0.23650791D-03 -0.37466827D-04  0.12066084D-03  0.75874776D-04  0.12019839D-04
  0.43211428D-05  0.41792211D-05  0.13024807D-05 -0.10490628D-05  0.14032062D-05
  0.10590206D-05 -0.18386910D-05 -0.11562182D-05 -0.18316440D-06  0.21588746D-06
  0.13575583D-06  0.21506004D-07  0.65140726D-05  0.40962237D-05  0.64891065D-06
 -0.84680689D-05 -0.81899475D-05 -0.25524489D-05 -0.67383020D-05 -0.65169924D-05
 -0.20310619D-05 -0.11376634D-03 -0.11002986D-03 -0.34291500D-04 -0.11275205D-03
 -0.10904888D-03 -0.33985771D-04 -0.21955371D-06 -0.21234279D-06 -0.66177973D-07
  0.27909620D-05  0.26992970D-05  0.84125296D-06  0.40370370D-04  0.39044464D-04
  0.12168454D-04 -0.22569380D-02 -0.21828121D-02 -0.68028720D-03 -0.22579457D-02
 -0.21837868D-02 -0.68059097D-03 -0.22624008D-02 -0.21880956D-02 -0.68193382D-03
 -0.12357474D-04 -0.11951610D-04 -0.37247949D-05 -0.24943637D-05 -0.24124400D-05
 -0.75185218D-06  0.39103235D-06  0.37818947D-06  0.11786514D-06
MO    9     MO 0.0        OCC NO =    2.0000000  ORB. ENERGY =  -10.363739
 -0.25131313D-05 -0.24305912D-05 -0.75750910D-06 -0.19880993D-05  0.26592435D-05
  0.20069707D-05 -0.13238789D-05 -0.83249056D-06 -0.13188049D-06  0.42441029D-05
  0.26688058D-05  0.42278367D-06 -0.11001616D-04 -0.69181113D-05 -0.10959451D-05
 -0.53766635D-05 -0.52000749D-05 -0.16206362D-05 -0.14904796D-05  0.19936369D-05
  0.15046275D-05 -0.21570991D-04 -0.13564418D-04 -0.21488317D-05 -0.36007143D-05
 -0.22642258D-05 -0.35869140D-06 -0.13379805D-05 -0.84135806D-06 -0.13328525D-06
 -0.66670419D-04 -0.64480726D-04 -0.20095826D-04 -0.23294645D-04  0.31158469D-04
  0.23515761D-04 -0.83075377D-04 -0.52240027D-04 -0.82756979D-05 -0.74598545D-05
 -0.46909567D-05 -0.74312635D-06  0.27917744D-04  0.17555426D-04  0.27810745D-05