 opt leucine b3lyp
GAUSSIAN             36 MOL ORBITALS    174 PRIMITIVES       22 NUCLEI
  O    1    (CENTRE  1)   1.81201946 -2.94258128  1.95450461  CHARGE =  8.0
  O    2    (CENTRE  2)   4.34471999 -1.47482109 -1.38700270  CHARGE =  8.0
  N    3    (CENTRE  3)   3.20664397  3.55357626  0.52628144  CHARGE =  7.0
  C    4    (CENTRE  4)  -3.47445945  0.28858047 -0.96984593  CHARGE =  6.0
  C    5    (CENTRE  5)  -0.98523755  1.85744923 -1.39264207  CHARGE =  6.0
  C    6    (CENTRE  6)   1.19113956  1.49296022  0.62033040  CHARGE =  6.0
  C    7    (CENTRE  7)  -4.76450804  0.93234072  1.60517925  CHARGE =  6.0
  C    8    (CENTRE  8)  -3.04877479 -2.61742168 -1.23530676  CHARGE =  6.0
  C    9    (CENTRE  9)   2.65608817 -1.06157449  0.21553986  CHARGE =  6.0
  H   10    (CENTRE 10)  -4.78431423  0.88372868 -2.48973410  CHARGE =  1.0
  H   11    (CENTRE 11)  -0.22257114  1.43027585 -3.28885213  CHARGE =  1.0
  H   12    (CENTRE 12)  -1.50034339  3.88272837 -1.37753906  CHARGE =  1.0
  H   13    (CENTRE 13)   0.37159041  1.49436932  2.54560328  CHARGE =  1.0
  H   14    (CENTRE 14)  -3.62519286  0.25555799  3.20701410  CHARGE =  1.0
  H   15    (CENTRE 15)  -5.03037044  2.98600514  1.80429518  CHARGE =  1.0
  H   16    (CENTRE 16)  -6.62981005  0.01868258  1.71251869  CHARGE =  1.0
  H   17    (CENTRE 17)  -2.27621258 -3.07083994 -3.11286110  CHARGE =  1.0
  H   18    (CENTRE 18)  -1.71145645 -3.28886164  0.21403885  CHARGE =  1.0
  H   19    (CENTRE 19)  -4.85283225 -3.62628609 -1.01011782  CHARGE =  1.0
  H   20    (CENTRE 20)   2.17247020  5.26556572  0.34085387  CHARGE =  1.0
  H   21    (CENTRE 21)   4.02111943  3.34472773 -1.29927569  CHARGE =  1.0
  H   22    (CENTRE 22)   2.92201248 -4.46547546  1.47054202  CHARGE =  1.0
CENTRE ASSIGNMENTS    1  1  1  1  1  1  1  1  1  1  1  1  1  1  1  2  2  2  2  2
CENTRE ASSIGNMENTS    2  2  2  2  2  2  2  2  2  2  3  3  3  3  3  3  3  3  3  3
CENTRE ASSIGNMENTS    3  3  3  3  3  4  4  4  4  4  4  4  4  4  4  4  4  4  4  4
CENTRE ASSIGNMENTS    5  5  5  5  5  5  5  5  5  5  5  5  5  5  5  6  6  6  6  6
CENTRE ASSIGNMENTS    6  6  6  6  6  6  6  6  6  6  7  7  7  7  7  7  7  7  7  7
CENTRE ASSIGNMENTS    7  7  7  7  7  8  8  8  8  8  8  8  8  8  8  8  8  8  8  8
CENTRE ASSIGNMENTS    9  9  9  9  9  9  9  9  9  9  9  9  9  9  9 10 10 10 11 11
CENTRE ASSIGNMENTS   11 12 12 12 13 13 13 14 14 14 15 15 15 16 16 16 17 17 17 18
CENTRE ASSIGNMENTS   18 18 19 19 19 20 20 20 21 21 21 22 22 22
TYPE ASSIGNMENTS      1  1  1  1  1  1  2  2  2  3  3  3  4  4  4  1  1  1  1  1
TYPE ASSIGNMENTS      1  2  2  2  3  3  3  4  4  4  1  1  1  1  1  1  2  2  2  3
TYPE ASSIGNMENTS      3  3  4  4  4  1  1  1  1  1  1  2  2  2  3  3  3  4  4  4
TYPE ASSIGNMENTS      1  1  1  1  1  1  2  2  2  3  3  3  4  4  4  1  1  1  1  1
TYPE ASSIGNMENTS      1  2  2  2  3  3  3  4  4  4  1  1  1  1  1  1  2  2  2  3
TYPE ASSIGNMENTS      3  3  4  4  4  1  1  1  1  1  1  2  2  2  3  3  3  4  4  4
TYPE ASSIGNMENTS      1  1  1  1  1  1  2  2  2  3  3  3  4  4  4  1  1  1  1  1
TYPE ASSIGNMENTS      1  1  1  1  1  1  1  1  1  1  1  1  1  1  1  1  1  1  1  1
TYPE ASSIGNMENTS      1  1  1  1  1  1  1  1  1  1  1  1  1  1
EXPONENTS  0.1307093D+03 0.2380887D+02 0.6443608D+01 0.5033151D+01 0.1169596D+01
EXPONENTS  0.3803890D+00 0.5033151D+01 0.1169596D+01 0.3803890D+00 0.5033151D+01
EXPONENTS  0.1169596D+01 0.3803890D+00 0.5033151D+01 0.1169596D+01 0.3803890D+00
EXPONENTS  0.1307093D+03 0.2380887D+02 0.6443608D+01 0.5033151D+01 0.1169596D+01
EXPONENTS  0.3803890D+00 0.5033151D+01 0.1169596D+01 0.3803890D+00 0.5033151D+01
EXPONENTS  0.1169596D+01 0.3803890D+00 0.5033151D+01 0.1169596D+01 0.3803890D+00
EXPONENTS  0.9910617D+02 0.1805231D+02 0.4885660D+01 0.3780456D+01 0.8784966D+00
EXPONENTS  0.2857144D+00 0.3780456D+01 0.8784966D+00 0.2857144D+00 0.3780456D+01
EXPONENTS  0.8784966D+00 0.2857144D+00 0.3780456D+01 0.8784966D+00 0.2857144D+00
EXPONENTS  0.7161684D+02 0.1304510D+02 0.3530512D+01 0.2941249D+01 0.6834831D+00
EXPONENTS  0.2222899D+00 0.2941249D+01 0.6834831D+00 0.2222899D+00 0.2941249D+01
EXPONENTS  0.6834831D+00 0.2222899D+00 0.2941249D+01 0.6834831D+00 0.2222899D+00
EXPONENTS  0.7161684D+02 0.1304510D+02 0.3530512D+01 0.2941249D+01 0.6834831D+00
EXPONENTS  0.2222899D+00 0.2941249D+01 0.6834831D+00 0.2222899D+00 0.2941249D+01
EXPONENTS  0.6834831D+00 0.2222899D+00 0.2941249D+01 0.6834831D+00 0.2222899D+00
EXPONENTS  0.7161684D+02 0.1304510D+02 0.3530512D+01 0.2941249D+01 0.6834831D+00
EXPONENTS  0.2222899D+00 0.2941249D+01 0.6834831D+00 0.2222899D+00 0.2941249D+01
EXPONENTS  0.6834831D+00 0.2222899D+00 0.2941249D+01 0.6834831D+00 0.2222899D+00
EXPONENTS  0.7161684D+02 0.1304510D+02 0.3530512D+01 0.2941249D+01 0.6834831D+00
EXPONENTS  0.2222899D+00 0.2941249D+01 0.6834831D+00 0.2222899D+00 0.2941249D+01
EXPONENTS  0.6834831D+00 0.2222899D+00 0.2941249D+01 0.6834831D+00 0.2222899D+00
EXPONENTS  0.7161684D+02 0.1304510D+02 0.3530512D+01 0.2941249D+01 0.6834831D+00
EXPONENTS  0.2222899D+00 0.2941249D+01 0.6834831D+00 0.2222899D+00 0.2941249D+01
EXPONENTS  0.6834831D+00 0.2222899D+00 0.2941249D+01 0.6834831D+00 0.2222899D+00
EXPONENTS  0.7161684D+02 0.1304510D+02 0.3530512D+01 0.2941249D+01 0.6834831D+00
EXPONENTS  0.2222899D+00 0.2941249D+01 0.6834831D+00 0.2222899D+00 0.2941249D+01
EXPONENTS  0.6834831D+00 0.2222899D+00 0.2941249D+01 0.6834831D+00 0.2222899D+00
EXPONENTS  0.3425251D+01 0.6239137D+00 0.1688554D+00 0.3425251D+01 0.6239137D+00
EXPONENTS  0.1688554D+00 0.3425251D+01 0.6239137D+00 0.1688554D+00 0.3425251D+01
EXPONENTS  0.6239137D+00 0.1688554D+00 0.3425251D+01 0.6239137D+00 0.1688554D+00
EXPONENTS  0.3425251D+01 0.6239137D+00 0.1688554D+00 0.3425251D+01 0.6239137D+00
EXPONENTS  0.1688554D+00 0.3425251D+01 0.6239137D+00 0.1688554D+00 0.3425251D+01
EXPONENTS  0.6239137D+00 0.1688554D+00 0.3425251D+01 0.6239137D+00 0.1688554D+00
EXPONENTS  0.3425251D+01 0.6239137D+00 0.1688554D+00 0.3425251D+01 0.6239137D+00
EXPONENTS  0.1688554D+00 0.3425251D+01 0.6239137D+00 0.1688554D+00
MO    1     MO 0.0        OCC NO =    2.0000000  ORB. ENERGY =  -18.937331
  0.42244408D+01  0.40856953D+01  0.12733328D+01 -0.68498782D-02  0.91622655D-02
  0.69148985D-02  0.47323516D-02  0.29758296D-02  0.47142141D-03 -0.25132102D-03
 -0.15803740D-03 -0.25035779D-04 -0.50738658D-02 -0.31905830D-02 -0.50544195D-03
  0.41205305D-02  0.39851977D-02  0.12420120D-02 -0.53745403D-04  0.71888818D-04
  0.54255564D-04 -0.58274800D-05 -0.36644758D-05 -0.58051454D-06 -0.10260417D-02
 -0.64520254D-03 -0.10221092D-03  0.47594126D-03  0.29928464D-03  0.47411714D-04
  0.40046673D-05  0.38731398D-05  0.12070885D-05 -0.27616148D-07  0.36938828D-07
  0.27878285D-07 -0.15004970D-04 -0.94355280D-05 -0.14947462D-05  0.54899920D-04
  0.34522543D-04  0.54689509D-05  0.73971648D-06  0.46515358D-06  0.73688141D-07
 -0.12774356D-05 -0.12354801D-05 -0.38504519D-06  0.14312526D-05 -0.19144160D-05
 -0.14448383D-05 -0.12066536D-05 -0.75877619D-06 -0.12020290D-06  0.50188288D-06
  0.31559742D-06  0.49995934D-07 -0.42053909D-05 -0.26444627D-05 -0.41892731D-06
 -0.16387624D-04 -0.15849397D-04 -0.49395647D-05 -0.44999194D-05  0.60190057D-05
  0.45426334D-05  0.12002508D-04  0.75474992D-05  0.11956507D-05 -0.24297489D-04
 -0.15278913D-04 -0.24204365D-05  0.49533029D-05  0.31147698D-05  0.49343187D-06
 -0.85534850D-04 -0.82725584D-04 -0.25781951D-04 -0.62466962D-04  0.83554608D-04
  0.63059909D-04 -0.47408917D-04 -0.29811999D-04 -0.47227215D-05 -0.24995606D-03
 -0.15717908D-03 -0.24899807D-04  0.23711549D-03  0.14910458D-03  0.23620671D-04
 -0.48330228D-05 -0.46742893D-05 -0.14567718D-05 -0.17822080D-05  0.23838472D-05
  0.17991250D-05  0.10455287D-04  0.65745650D-05  0.10415216D-05 -0.50445764D-05
 -0.31721650D-05 -0.50252424D-06  0.32242739D-05  0.20275100D-05  0.32119164D-06
 -0.13939834D-03 -0.13482000D-03 -0.42017506D-04 -0.76138301D-04  0.10184113D-03
  0.76861019D-04  0.21405007D-03  0.13460043D-03  0.21322969D-04 -0.11288010D-03
 -0.70982033D-04 -0.11244747D-04  0.22607239D-03  0.14216039D-03  0.22520594D-04
  0.15863204D-02  0.15342200D-02  0.47814938D-03  0.75764348D-03 -0.10134094D-02
 -0.76483516D-03  0.14457120D-02  0.90910249D-03  0.14401711D-03  0.29185350D-02
  0.18352531D-02  0.29073493D-03 -0.28695667D-02 -0.18044606D-02 -0.28585687D-03
  0.21723113D-05  0.21009650D-05  0.65477901D-06 -0.56338020D-05 -0.54487680D-05
 -0.16981430D-05  0.40877578D-05  0.39535014D-05  0.12321337D-05 -0.75992372D-04
 -0.73496514D-04 -0.22905653D-04 -0.10261787D-05 -0.99247541D-06 -0.30931123D-06
  0.54884379D-06  0.53081782D-06  0.16543273D-06  0.60170712D-06  0.58194493D-06
  0.18136682D-06  0.15229208D-05  0.14729027D-05  0.45903944D-06 -0.27681171D-03
 -0.26772023D-03 -0.83436703D-04 -0.22175757D-05 -0.21447427D-05 -0.66842262D-06
  0.47043119D-06  0.45498057D-06  0.14179757D-06 -0.18506194D-04 -0.17898385D-04
 -0.55781448D-05 -0.17512997D-02 -0.16937808D-02 -0.52787749D-03
MO    2     MO 0.0        OCC NO =    2.0000000  ORB. ENERGY =  -18.875825
 -0.44668035D-02 -0.43200979D-02 -0.13463858D-02 -0.62818510D-04  0.84024832D-04
  0.63414794D-04  0.67076357D-03  0.42179413D-03  0.66819277D-04 -0.41833612D-03
 -0.26306098D-03 -0.41673279D-04 -0.51866168D-03 -0.32614838D-03 -0.51667383D-04
  0.42246699D+01  0.40859168D+01  0.12734018D+01 -0.69011632D-02  0.92308633D-02
  0.69666703D-02 -0.69907737D-02 -0.43959861D-02 -0.69639805D-03  0.16681633D-02
  0.10489858D-02  0.16617698D-03  0.66436674D-02  0.41777163D-02  0.66182046D-03
 -0.50631167D-04 -0.48968260D-04 -0.15261268D-04 -0.19328758D-04  0.25853776D-04
  0.19512230D-04  0.13884812D-03  0.87311423D-04  0.13831596D-04 -0.78764558D-04
 -0.49529268D-04 -0.78462682D-05 -0.84507248D-04 -0.53140425D-04 -0.84183362D-05
  0.59642566D-05  0.57683693D-05  0.17977488D-05  0.28877820D-05 -0.38626417D-05
 -0.29151933D-05 -0.13781112D-04 -0.86659333D-05 -0.13728294D-05  0.18740581D-05
  0.11784580D-05  0.18668755D-06  0.14981366D-05  0.94206849D-06  0.14923948D-06
 -0.26298964D-04 -0.25435213D-04 -0.79270449D-05 -0.49106725D-05  0.65684212D-05
  0.49572854D-05  0.12616234D-04  0.79334263D-05  0.12567880D-05 -0.59992787D-04
 -0.37725074D-04 -0.59762856D-05 -0.61167651D-05 -0.38463860D-05 -0.60933217D-06
 -0.44579234D-04 -0.43115094D-04 -0.13437092D-04 -0.15100907D-04  0.20198683D-04
  0.15244247D-04  0.26566627D-03  0.16705808D-03  0.26464806D-04  0.10977337D-03
  0.69028440D-04  0.10935265D-04 -0.31720463D-03 -0.19946678D-03 -0.31598889D-04
 -0.17967869D-05 -0.17377740D-05 -0.54158826D-06 -0.69523542D-06  0.92993354D-06
  0.70183471D-06  0.42376720D-05  0.26647619D-05  0.42214305D-06  0.73767097D-06
  0.46386730D-06  0.73484374D-07  0.12970789D-05  0.81563803D-06  0.12921077D-06
 -0.95568033D-06 -0.92429241D-06 -0.28806157D-06  0.12477571D-05 -0.16689759D-05
 -0.12596010D-05  0.13508758D-04  0.84946697D-05  0.13456984D-05  0.78737096D-05
  0.49511999D-05  0.78435325D-06 -0.71576495D-05 -0.45009221D-05 -0.71302168D-06
  0.18424521D-02  0.17819395D-02  0.55535270D-03  0.12660302D-02 -0.16934176D-02
 -0.12780476D-02 -0.45422553D-02 -0.28562920D-02 -0.45248465D-03  0.11432955D-02
  0.71893487D-03  0.11389136D-03  0.42994120D-02  0.27035857D-02  0.42829339D-03
 -0.16464237D-06 -0.15923493D-06 -0.49626574D-07 -0.15244668D-05 -0.14743979D-05
 -0.45950543D-06  0.45915023D-05  0.44407012D-05  0.13839726D-05  0.62431933D-05
  0.60381447D-05  0.18818260D-05 -0.15825797D-05 -0.15306022D-05 -0.47702186D-06
  0.95115312D-07  0.91991389D-07  0.28669698D-07  0.26220596D-06  0.25359419D-06
  0.79034233D-07  0.39424235D-05  0.38129404D-05  0.11883270D-05  0.65960320D-05
  0.63793950D-05  0.19881788D-05  0.20694347D-05  0.20014672D-05  0.62376989D-06
  0.70332919D-05  0.68022937D-05  0.21199778D-05 -0.68922515D-04 -0.66658856D-04
 -0.20774654D-04 -0.38752351D-04 -0.37479586D-04 -0.11680750D-04
MO    3     MO 0.0        OCC NO =    2.0000000  ORB. ENERGY =  -14.110336
  0.11913441D-04  0.11522161D-04  0.35909544D-05  0.37412600D-05 -0.50042376D-05
 -0.37767727D-05  0.65815945D-04  0.41386832D-04  0.65563696D-05 -0.31478432D-04
 -0.19794483D-04 -0.31357787D-05  0.32912390D-05  0.20696194D-05  0.32786248D-06
 -0.11311960D-03 -0.10940435D-03 -0.34096558D-04 -0.26685272D-04  0.35693707D-04
  0.26938573D-04 -0.96863640D-05 -0.60910456D-05 -0.96492396D-06  0.17123463D-03
  0.10767693D-03  0.17057835D-04 -0.31960851D-04 -0.20097841D-04 -0.31838356D-05
  0.34290091D+01  0.33163883D+01  0.10335734D+01 -0.67854786D-02  0.90761258D-02
  0.68498875D-02 -0.40220272D-02 -0.25291587D-02 -0.40066122D-03  0.49272268D-03
  0.30983724D-03  0.49083425D-04 -0.51304378D-02 -0.32261569D-02 -0.51107746D-03
  0.11111953D-04  0.10746997D-04  0.33493696D-05 -0.65826937D-06  0.88048846D-06
  0.66451778D-06 -0.29279216D-04 -0.18411556D-04 -0.29166999D-05  0.22120682D-04
  0.13910079D-04  0.22035902D-05 -0.53095990D-04 -0.33388184D-04 -0.52892492D-05
 -0.23772831D-04 -0.22992047D-04 -0.71656168D-05 -0.29630497D-04  0.39633184D-04
  0.29911755D-04  0.27524303D-03  0.17308020D-03  0.27418812D-04  0.14483150D-03
  0.91073931D-04  0.14427641D-04  0.96452586D-04  0.60651974D-04  0.96082917D-05
  0.15714796D-02  0.15198666D-02  0.47367604D-03  0.90884427D-03 -0.12156526D-02
 -0.91747118D-03 -0.30658732D-02 -0.19279033D-02 -0.30541228D-03 -0.31626836D-02
 -0.19887803D-02 -0.31505621D-03  0.18978813D-03  0.11934387D-03  0.18906074D-04
  0.84555412D-07  0.81778313D-07  0.25486728D-07 -0.21085869D-05  0.28204053D-05
  0.21286019D-05 -0.66206978D-05 -0.41632725D-05 -0.65953230D-06 -0.11160309D-04
 -0.70179016D-05 -0.11117535D-05  0.58202621D-05  0.36599370D-05  0.57979551D-06
 -0.46973461D-06 -0.45430687D-06 -0.14158761D-06 -0.31126292D-05  0.41633930D-05
  0.31421748D-05 -0.10344823D-04 -0.65051021D-05 -0.10305175D-05 -0.14310777D-04
 -0.89990003D-05 -0.14255928D-05  0.71794214D-05  0.45146128D-05  0.71519052D-06
  0.64431756D-05  0.62315589D-05  0.19421047D-05 -0.42768385D-04  0.57206170D-04
  0.43174350D-04 -0.53211300D-04 -0.33460693D-04 -0.53007360D-05  0.19747011D-03
  0.12417451D-03  0.19671328D-04 -0.37583371D-04 -0.23633432D-04 -0.37439327D-05
 -0.77437036D-05 -0.74893730D-05 -0.23341104D-05  0.37330960D-04  0.36104879D-04
  0.11252314D-04  0.69477898D-04  0.67195998D-04  0.20942057D-04  0.81707757D-04
  0.79024186D-04  0.24628387D-04 -0.11205190D-04 -0.10837172D-04 -0.33774732D-05
  0.13228166D-05  0.12793706D-05  0.39872393D-06 -0.14087252D-05 -0.13624577D-05
 -0.42461856D-06 -0.87852026D-06 -0.84966655D-06 -0.26480395D-06 -0.14159888D-04
 -0.13694827D-04 -0.42680793D-05 -0.23402980D-05 -0.22634343D-05 -0.70541362D-06
 -0.21639479D-02 -0.20928762D-02 -0.65225810D-03 -0.21558900D-02 -0.20850830D-02
 -0.64982929D-03  0.73220546D-06  0.70815724D-06  0.22070168D-06
MO    4     MO 0.0        OCC NO =    2.0000000  ORB. ENERGY =  -10.103160
  0.26100405D-02  0.25243176D-02  0.78671953D-03  0.12711529D-02 -0.17002697D-02
 -0.12832189D-02 -0.17232783D-02 -0.10836437D-02 -0.17166736D-03 -0.48912516D-02
 -0.30757502D-02 -0.48725051D-03  0.39182544D-02  0.24639035D-02  0.39032371D-03
  0.23219462D-02  0.22456853D-02  0.69988201D-03  0.18052425D-02 -0.24146577D-02
 -0.18223782D-02  0.38142944D-02  0.23985307D-02  0.37996756D-03 -0.86679776D-03
 -0.54506569D-03 -0.86347563D-04 -0.36316162D-02 -0.22836577D-02 -0.36176975D-03
  0.39396567D-04  0.38102645D-04  0.11874930D-04 -0.69907647D-04  0.93507125D-04
  0.70571222D-04 -0.33020278D-03 -0.20764037D-03 -0.32893723D-04  0.24089253D-03
  0.15147968D-03  0.23996927D-04 -0.15724507D-03 -0.98879922D-04 -0.15664241D-04
  0.17694872D-03  0.17113710D-03  0.53335959D-04 -0.13283168D-04  0.17767311D-04
  0.13409254D-04  0.26937314D-04  0.16938906D-04  0.26834072D-05 -0.41216527D-05
 -0.25918058D-05 -0.41058559D-06 -0.15157473D-04 -0.95314258D-05 -0.15099380D-05
 -0.93542298D-03 -0.90470039D-03 -0.28195559D-03 -0.35589815D-04  0.47604252D-04
  0.35927639D-04  0.23156889D-04  0.14561673D-04  0.23068136D-05  0.22135919D-03
  0.13919660D-03  0.22051080D-04 -0.32762257D-04 -0.20601786D-04 -0.32636691D-05
 -0.26194929D-01 -0.25334595D-01 -0.78956867D-02  0.11090965D-02 -0.14835061D-02
 -0.11196242D-02 -0.23273768D-02 -0.14635170D-02 -0.23184568D-03  0.38016836D-02
  0.23906006D-02  0.37871131D-03  0.69801202D-03  0.43892869D-03  0.69533679D-04
  0.27836668D-04  0.26922413D-04  0.83905403D-05 -0.54211635D-07  0.72512442D-07
  0.54726222D-07  0.82023566D-05  0.51578619D-05  0.81709198D-06 -0.66740478D-05
 -0.41968203D-05 -0.66484685D-06  0.21540304D-06  0.13545121D-06  0.21457748D-07
  0.72014914D-05  0.69649690D-05  0.21706766D-05 -0.41726394D-04  0.55812422D-04
  0.42122468D-04 -0.92041253D-04 -0.57878010D-04 -0.91688492D-05 -0.18389947D-03
 -0.11564092D-03 -0.18319465D-04  0.11419869D-03  0.71811200D-04  0.11376101D-04
  0.26839679D+01  0.25958169D+01  0.80900275D+00 -0.60359239D-02  0.80735359D-02
  0.60932180D-02  0.42410362D-03  0.26668774D-03  0.42247818D-04 -0.87938836D-04
 -0.55298300D-04 -0.87601798D-05 -0.46868651D-03 -0.29472266D-03 -0.46689020D-04
 -0.49421609D-06 -0.47798429D-06 -0.14896682D-06 -0.98744478D-04 -0.95501360D-04
 -0.29763602D-04 -0.47480785D-04 -0.45921349D-04 -0.14311679D-04  0.80931347D-05
  0.78273275D-05  0.24394361D-05  0.35203684D-05  0.34047471D-05  0.10611109D-05
 -0.41501958D-06 -0.40138886D-06 -0.12509538D-06  0.70103733D-06  0.67801278D-06
  0.21130697D-06 -0.33404526D-04 -0.32307403D-04 -0.10068806D-04 -0.21279447D-03
 -0.20580554D-03 -0.64140599D-04 -0.25967971D-04 -0.25115091D-04 -0.78272767D-05
 -0.52841857D-04 -0.51106343D-04 -0.15927615D-04 -0.12525008D-03 -0.12113643D-03
 -0.37752933D-04 -0.46261916D-03 -0.44742511D-03 -0.13944286D-03
MO    5     MO 0.0        OCC NO =    2.0000000  ORB. ENERGY =  -10.053916
 -0.96877521D-04 -0.93695721D-04 -0.29200864D-04 -0.75371483D-04  0.10081545D-03
  0.76086922D-04  0.19090028D-04  0.12004322D-04  0.19016863D-05  0.23028375D-03
  0.14480860D-03  0.22940116D-04 -0.67257850D-04 -0.42293541D-04 -0.67000074D-05
 -0.65747668D-04 -0.63588282D-04 -0.19817690D-04 -0.16355358D-04  0.21876612D-04
  0.16510606D-04 -0.10869354D-03 -0.68349415D-04 -0.10827696D-04  0.55666574D-03
  0.35004635D-03  0.55453223D-04 -0.11170490D-03 -0.70243041D-04 -0.11127678D-04
  0.26759876D-02  0.25880987D-02  0.80659731D-03  0.11460558D-02 -0.15329422D-02
 -0.11569343D-02  0.40269973D-02  0.25322839D-02  0.40115632D-03  0.41931582D-02
  0.26367704D-02  0.41770873D-03 -0.39846040D-03 -0.25056259D-03 -0.39693324D-04
 -0.73092085D-03 -0.70691482D-03 -0.22031447D-03 -0.35839173D-04  0.47937790D-04
  0.36179365D-04  0.96852232D-04  0.60903282D-04  0.96481031D-05  0.65934945D-04
  0.41461663D-04  0.65682240D-05  0.69436235D-05  0.43663368D-05  0.69170111D-06
 -0.39212467D-01 -0.37924591D-01 -0.11819439D-01  0.11963346D-02 -0.16001942D-02
 -0.12076905D-02 -0.34866153D-02 -0.21924773D-02 -0.34732524D-03  0.53620639D-03
  0.33718097D-03  0.53415130D-04 -0.31636120D-02 -0.19893641D-02 -0.31514870D-03
  0.26816679D+01  0.25935925D+01  0.80830949D+00 -0.68882045D-02  0.92135300D-02
  0.69535885D-02 -0.31128664D-04 -0.19574539D-04 -0.31009358D-05 -0.34255977D-03
 -0.21541078D-03 -0.34124686D-04  0.54300190D-03  0.34145417D-03  0.54092077D-04
 -0.18470344D-04 -0.17863713D-04 -0.55673390D-05  0.74551930D-05 -0.99719229D-05
 -0.75259590D-05  0.13134200D-04  0.82591375D-05  0.13083861D-05  0.57369344D-04
  0.36075383D-04  0.57149467D-05 -0.45704309D-04 -0.28740096D-04 -0.45529141D-05
  0.19845188D-03  0.19193402D-03  0.59817451D-04 -0.10485888D-04  0.14025723D-04
  0.10585422D-04  0.12206034D-04  0.76754817D-05  0.12159253D-05 -0.21260072D-04
 -0.13368904D-04 -0.21178590D-05 -0.39111064D-05 -0.24594086D-05 -0.38961165D-06
  0.30270618D-01  0.29276424D-01  0.91241826D-02  0.10734830D-02 -0.14358703D-02
 -0.10836727D-02  0.24259297D-02  0.15254897D-02  0.24166320D-03 -0.42009880D-02
 -0.26416940D-02 -0.41848871D-03 -0.69123905D-03 -0.43466967D-03 -0.68858978D-04
 -0.32597145D-04 -0.31526540D-04 -0.98254454D-05  0.54605897D-04  0.52812446D-04
  0.16459333D-04  0.53823975D-04  0.52056206D-04  0.16223646D-04 -0.25550114D-02
 -0.24710958D-02 -0.77013262D-03  0.72907473D-04  0.70512934D-04  0.21975801D-04
  0.63980105D-05  0.61878772D-05  0.19284910D-05  0.35396236D-05  0.34233698D-05
  0.10669148D-05  0.66123738D-06  0.63952000D-06  0.19931045D-06 -0.32680073D-04
 -0.31606743D-04 -0.98504414D-05 -0.18711100D-05 -0.18096561D-05 -0.56399076D-06
 -0.13543921D-03 -0.13099091D-03 -0.40824146D-04 -0.15256997D-03 -0.14755904D-03
 -0.45987707D-04 -0.42364896D-04 -0.40973483D-04 -0.12769645D-04
MO    6     MO 0.0        OCC NO =    2.0000000  ORB. ENERGY =  -10.025228
  0.76645304D-06  0.74128001D-06  0.23102460D-06  0.31495843D-06 -0.42128234D-06
 -0.31794807D-06  0.10428896D-04  0.65579697D-05  0.10388926D-05  0.34881167D-06
  0.21934214D-06  0.34747480D-07  0.18538214D-05  0.11657326D-05  0.18467163D-06
  0.16523803D-04  0.15981103D-04  0.49806119D-05  0.59242453D-05 -0.79241567D-05
 -0.59804793D-05  0.28754065D-04  0.18081328D-04  0.28643861D-05 -0.14392468D-04
 -0.90503701D-05 -0.14337307D-05 -0.84202885D-05 -0.52949034D-05 -0.83880165D-06
  0.28502177D-04  0.27566065D-04  0.85911384D-05  0.94345898D-05 -0.12619526D-04
 -0.95241446D-05  0.74498332D-04  0.46846550D-04  0.74212806D-05  0.27411140D-04
  0.17236861D-04  0.27306083D-05  0.40750366D-04  0.25624924D-04  0.40594184D-05
  0.26685726D+01  0.25809273D+01  0.80436230D+00 -0.71586206D-02  0.95752334D-02
  0.72265715D-02 -0.16033144D-03 -0.10082071D-03 -0.15971695D-04  0.39035553D-03
  0.24546603D-03  0.38885944D-04 -0.45479100D-03 -0.28598479D-03 -0.45304795D-04
 -0.25043867D+00 -0.24221337D+00 -0.75487329D-01  0.17823595D-02 -0.23840499D-02
 -0.17992780D-02  0.39899337D-02  0.25089774D-02  0.39746417D-03  0.24714023D-02
  0.15540841D-02  0.24619303D-03 -0.63729601D-03 -0.40074883D-03 -0.63485348D-04
 -0.32973539D-02 -0.31890572D-02 -0.99388982D-03 -0.11830658D-03  0.15824461D-03
  0.11942957D-03 -0.38728902D-03 -0.24353773D-03 -0.38580468D-04  0.82377391D-04
  0.51801114D-04  0.82061667D-05 -0.27647947D-03 -0.17385771D-03 -0.27541982D-04
 -0.59508426D-01 -0.57553959D-01 -0.17937055D-01  0.13032323D-02 -0.17431785D-02
 -0.13156028D-02 -0.20982208D-02 -0.13194175D-02 -0.20901791D-03  0.10388256D-02
  0.65324140D-03  0.10348441D-03  0.42062949D-02  0.26450311D-02  0.41901737D-03
 -0.43017824D-01 -0.41604967D-01 -0.12966451D-01  0.12566921D-02 -0.16809273D-02
 -0.12686209D-02  0.69108654D-03  0.43457376D-03  0.68843785D-04 -0.47488298D-02
 -0.29861916D-02 -0.47306292D-03 -0.41398118D-03 -0.26032247D-03 -0.41239453D-04
 -0.35943431D-03 -0.34762922D-03 -0.10834084D-03 -0.66161831D-05  0.88496794D-05
  0.66789851D-05 -0.72447615D-05 -0.45557004D-05 -0.72169949D-06  0.10505112D-04
  0.66058961D-05  0.10464849D-05 -0.30375732D-04 -0.19101076D-04 -0.30259313D-05
 -0.25495116D-02 -0.24657766D-02 -0.76847488D-03  0.27454388D-03  0.26552689D-03
  0.82753133D-04  0.27532273D-03  0.26628015D-03  0.82987893D-04 -0.36837970D-04
 -0.35628081D-04 -0.11103717D-04  0.77833614D-04  0.75277283D-04  0.23460641D-04
  0.95611719D-04  0.92471492D-04  0.28819325D-04  0.96945660D-04  0.93761621D-04
  0.29221402D-04  0.78555154D-04  0.75975125D-04  0.23678128D-04  0.57680000D-04
  0.55785585D-04  0.17385930D-04  0.79055990D-04  0.76459511D-04  0.23829090D-04
 -0.85144182D-05 -0.82347746D-05 -0.25664196D-05 -0.91847597D-05 -0.88830997D-05
 -0.27684742D-05 -0.10537971D-05 -0.10191867D-05 -0.31763598D-06
MO    7     MO 0.0        OCC NO =    2.0000000  ORB. ENERGY =  -10.019731
 -0.37888416D-04 -0.36644026D-04 -0.11420342D-04 -0.10370860D-04  0.13871863D-04
  0.10469302D-04 -0.35936848D-04 -0.22598055D-04 -0.35799115D-05  0.53311036D-04
  0.33523410D-04  0.53106713D-05 -0.58800663D-04 -0.36975435D-04 -0.58575301D-05
 -0.60611872D-04 -0.58621163D-04 -0.18269656D-04 -0.15034961D-04  0.20110475D-04
  0.15177675D-04 -0.97070751D-04 -0.61040693D-04 -0.96698713D-05  0.58100653D-04
  0.36535250D-04  0.57877974D-05 -0.23649059D-04 -0.14871163D-04 -0.23558421D-05
  0.15420626D-04  0.14914158D-04  0.46480918D-05 -0.28679399D-04  0.38361014D-04
  0.28951629D-04 -0.11298423D-03 -0.71047515D-04 -0.11255120D-04  0.14156222D-04
  0.89018125D-05  0.14101967D-05 -0.92729273D-04 -0.58310655D-04 -0.92373875D-05
  0.25418147D+00  0.24583325D+00  0.76615486D-01  0.42321832D-03 -0.56608870D-03
 -0.42723558D-03 -0.40254664D-02 -0.25313213D-02 -0.40100382D-03 -0.24641179D-02
 -0.15495035D-02 -0.24546738D-03  0.62603209D-03  0.39366578D-03  0.62363273D-04
  0.26697795D+01  0.25820945D+01  0.80472606D+00 -0.69667785D-02  0.93186291D-02
  0.70329084D-02  0.42868881D-03  0.26957103D-03  0.42704579D-04  0.97435750D-03
  0.61270215D-03  0.97062314D-04 -0.78379500D-03 -0.49287133D-03 -0.78079100D-04
  0.43190539D-01  0.41772009D-01  0.13018511D-01  0.98582944D-03 -0.13186265D-02
 -0.99518710D-03  0.34345105D-02  0.21597124D-02  0.34213473D-03 -0.57730929D-03
 -0.36302758D-03 -0.57509667D-04  0.31960947D-02  0.20097901D-02  0.31838452D-03
 -0.12020953D-01 -0.11626143D-01 -0.36233609D-02  0.11553295D-03 -0.15453465D-03
 -0.11662960D-03 -0.26985668D-03 -0.16969312D-03 -0.26882241D-04  0.46626744D-04
  0.29320148D-04  0.46448040D-05  0.33787346D-03  0.21246390D-03  0.33657851D-04
 -0.77165240D-02 -0.74630860D-02 -0.23259179D-02  0.10117472D-03 -0.13532936D-03
 -0.10213508D-03 -0.19248839D-04 -0.12104187D-04 -0.19175066D-05 -0.43229669D-03
 -0.27183976D-03 -0.43063985D-04 -0.22906788D-04 -0.14404403D-04 -0.22818995D-05
  0.15547623D-02  0.15036984D-02  0.46863711D-03  0.59023408D-05 -0.78948577D-05
 -0.59583668D-05  0.42416881D-04  0.26672873D-04  0.42254312D-05  0.28751866D-04
  0.18079945D-04  0.28641670D-05  0.13464449D-05  0.84668067D-06  0.13412844D-06
 -0.20478399D-03 -0.19805816D-03 -0.61726077D-04 -0.25368159D-02 -0.24534979D-02
 -0.76464812D-03 -0.25419732D-02 -0.24584858D-02 -0.76620266D-03 -0.17380515D-04
 -0.16809677D-04 -0.52388421D-05  0.94973978D-05  0.91854697D-05  0.28627097D-05
  0.15507158D-04  0.14997848D-04  0.46741742D-05 -0.25436354D-04 -0.24600934D-04
 -0.76670366D-05  0.17130022D-04  0.16567412D-04  0.51633387D-05 -0.93179444D-05
 -0.90119102D-05 -0.28086188D-05 -0.29055404D-04 -0.28101122D-04 -0.87578924D-05
 -0.17863886D-05 -0.17277172D-05 -0.53845400D-06 -0.18570448D-04 -0.17960529D-04
 -0.55975124D-05  0.14497391D-05  0.14021246D-05  0.43698099D-06
MO    8     MO 0.0        OCC NO =    2.0000000  ORB. ENERGY =  -10.003206
 -0.10295259D-04 -0.99571267D-05 -0.31032015D-05 -0.13439711D-05  0.17976700D-05
  0.13567283D-05 -0.32255980D-04 -0.20283426D-04 -0.32132355D-05  0.15679547D-04
  0.98597196D-05  0.15619452D-05  0.16904388D-04  0.10629933D-04  0.16839599D-05
 -0.36634104D-05 -0.35430910D-05 -0.11042267D-05 -0.18028035D-05  0.24113954D-05
  0.18199161D-05 -0.45183508D-05 -0.28412602D-05 -0.45010335D-06  0.44531467D-05
  0.28002581D-05  0.44360793D-06  0.55984042D-05  0.35204268D-05  0.55769475D-06
  0.37964541D-05  0.36717651D-05  0.11443288D-05  0.13490604D-05 -0.18044772D-05
 -0.13618659D-05 -0.11834104D-05 -0.74416020D-06 -0.11788748D-06  0.40488429D-05
  0.25460211D-05  0.40333251D-06  0.29941118D-05  0.18827779D-05  0.29826365D-06
  0.64208054D-01  0.62099235D-01  0.19353619D-01  0.95392570D-03 -0.12759527D-02
 -0.96298053D-03  0.20872669D-02  0.13125295D-02  0.20792672D-03 -0.10887565D-02
 -0.68463933D-03 -0.10845837D-03 -0.42096098D-02 -0.26471156D-02 -0.41934758D-03
  0.65380422D-02  0.63233098D-02  0.19706995D-02 -0.14852039D-04  0.19865802D-04
  0.14993017D-04  0.55031000D-04  0.34604970D-04  0.54820086D-05  0.49464928D-05
  0.31104874D-05  0.49275347D-06 -0.93481324D-04 -0.58783565D-04 -0.93123043D-05
  0.13942129D-03  0.13484220D-03  0.42024423D-04 -0.39078007D-06  0.52269991D-06
  0.39448942D-06  0.29947708D-04  0.18831922D-04  0.29832929D-05 -0.27737285D-04
 -0.17441949D-04 -0.27630978D-05 -0.19753906D-04 -0.12421786D-04 -0.19678196D-05
  0.26809145D+01  0.25928637D+01  0.80808238D+00 -0.72572053D-02  0.97070983D-02
  0.73260919D-02 -0.34788413D-03 -0.21875887D-03 -0.34655081D-04  0.11369508D-03
  0.71494515D-04  0.11325932D-04  0.56551275D-03  0.35560959D-03  0.56334534D-04
 -0.14235728D-01 -0.13768176D-01 -0.42909392D-02  0.41079134D-04 -0.54946660D-04
 -0.41469064D-04  0.43702968D-04  0.27481599D-04  0.43535470D-05 -0.53401450D-04
 -0.33580265D-04 -0.53196782D-05 -0.11473474D-03 -0.72148283D-04 -0.11429500D-04
 -0.33856327D-04 -0.32744366D-04 -0.10204989D-04  0.12848483D-05 -0.17185885D-05
 -0.12970443D-05 -0.13485609D-04 -0.84801131D-05 -0.13433924D-05 -0.11065200D-04
 -0.69580944D-05 -0.11022791D-05  0.77294182D-05  0.48604656D-05  0.76997940D-06
 -0.24631239D-04 -0.23822262D-04 -0.74243585D-05 -0.45629781D-04 -0.44131138D-04
 -0.13753748D-04  0.76845339D-05  0.74321466D-05  0.23162755D-05  0.19732747D-04
  0.19084654D-04  0.59478531D-05 -0.25477559D-02 -0.24640786D-02 -0.76794567D-03
 -0.25453619D-02 -0.24617632D-02 -0.76722408D-03 -0.25487965D-02 -0.24650850D-02
 -0.76825932D-03 -0.27637246D-04 -0.26729541D-04 -0.83304303D-05  0.25187732D-04
  0.24360478D-04  0.75920969D-05  0.16855271D-04  0.16301684D-04  0.50805229D-05
  0.16453392D-05  0.15913004D-05  0.49593883D-06  0.31555404D-06  0.30519013D-06
  0.95114433D-07  0.13828084D-05  0.13373920D-05  0.41680668D-06
MO    9     MO 0.0        OCC NO =    2.0000000  ORB. ENERGY =   -9.995143
 -0.27599128D-03 -0.26692675D-03 -0.83189410D-04 -0.82857468D-04  0.11082856D-03
  0.83643966D-04 -0.63949619D-03 -0.40213236D-03 -0.63704522D-04 -0.70449783D-04
 -0.44300714D-04 -0.70179774D-05 -0.20417969D-03 -0.12839367D-03 -0.20339714D-04
 -0.53557868D-05 -0.51798838D-05 -0.16143435D-05 -0.14872834D-06  0.19893617D-06
  0.15014010D-06 -0.19735161D-04 -0.12409999D-04 -0.19659523D-05  0.19457510D-05
  0.12235404D-05  0.19382936D-06 -0.19515006D-04 -0.12271559D-04 -0.19440211D-05
  0.35514199D-05  0.34347787D-05  0.10704705D-05  0.85865854D-06 -0.11485252D-05
 -0.86680908D-06  0.39382251D-05  0.24764616D-05  0.39231313D-06 -0.11973171D-05
 -0.75290514D-06 -0.11927282D-06 -0.19609282D-05 -0.12330843D-05 -0.19534127D-06