 opt leucine pbe0
GAUSSIAN             58 MOL ORBITALS    174 PRIMITIVES       22 NUCLEI
  O    1    (CENTRE  1)   2.10344917 -2.77790598  2.08563676  CHARGE =  8.0
  O    2    (CENTRE  2)   4.10353136 -1.45156705 -1.58132876  CHARGE =  8.0
  N    3    (CENTRE  3)   3.08192412  3.56341447  0.50626201  CHARGE =  7.0
  C    4    (CENTRE  4)  -3.43882436  0.20592516 -0.95091700  CHARGE =  6.0
  C    5    (CENTRE  5)  -1.02255430  1.82208946 -1.36792360  CHARGE =  6.0
  C    6    (CENTRE  6)   1.13993161  1.49195971  0.60807288  CHARGE =  6.0
  C    7    (CENTRE  7)  -4.75542280  0.83852659  1.57667084  CHARGE =  6.0
  C    8    (CENTRE  8)  -2.93401620 -2.65965448 -1.16339526  CHARGE =  6.0
  C    9    (CENTRE  9)   2.62276201 -1.00803350  0.18047132  CHARGE =  6.0
  H   10    (CENTRE 10)  -4.74366346  0.73198750 -2.48209684  CHARGE =  1.0
  H   11    (CENTRE 11)  -0.25711559  1.42572828 -3.25563128  CHARGE =  1.0
  H   12    (CENTRE 12)  -1.58318058  3.82102668 -1.34258618  CHARGE =  1.0
  H   13    (CENTRE 13)   0.34424284  1.46137861  2.52836880  CHARGE =  1.0
  H   14    (CENTRE 14)  -3.61074298  0.23294412  3.18688440  CHARGE =  1.0
  H   15    (CENTRE 15)  -5.09295013  2.87183380  1.74016639  CHARGE =  1.0
  H   16    (CENTRE 16)  -6.57663334 -0.13293379  1.68902202  CHARGE =  1.0
  H   17    (CENTRE 17)  -2.03963888 -3.11120361 -2.97209884  CHARGE =  1.0
  H   18    (CENTRE 18)  -1.69393192 -3.29816159  0.36268354  CHARGE =  1.0
  H   19    (CENTRE 19)  -4.71396013 -3.70298576 -1.04152878  CHARGE =  1.0
  H   20    (CENTRE 20)   2.03957444  5.25176058  0.46431983  CHARGE =  1.0
  H   21    (CENTRE 21)   3.82695518  3.45825066 -1.33134905  CHARGE =  1.0
  H   22    (CENTRE 22)   3.20047573 -4.26262021  1.57767284  CHARGE =  1.0
CENTRE ASSIGNMENTS    1  1  1  1  1  1  1  1  1  1  1  1  1  1  1  2  2  2  2  2
CENTRE ASSIGNMENTS    2  2  2  2  2  2  2  2  2  2  3  3  3  3  3  3  3  3  3  3
CENTRE ASSIGNMENTS    3  3  3  3  3  4  4  4  4  4  4  4  4  4  4  4  4  4  4  4
CENTRE ASSIGNMENTS    5  5  5  5  5  5  5  5  5  5  5  5  5  5  5  6  6  6  6  6
CENTRE ASSIGNMENTS    6  6  6  6  6  6  6  6  6  6  7  7  7  7  7  7  7  7  7  7
CENTRE ASSIGNMENTS    7  7  7  7  7  8  8  8  8  8  8  8  8  8  8  8  8  8  8  8
CENTRE ASSIGNMENTS    9  9  9  9  9  9  9  9  9  9  9  9  9  9  9 10 10 10 11 11
CENTRE ASSIGNMENTS   11 12 12 12 13 13 13 14 14 14 15 15 15 16 16 16 17 17 17 18
CENTRE ASSIGNMENTS   18 18 19 19 19 20 20 20 21 21 21 22 22 22
TYPE ASSIGNMENTS      1  1  1  1  1  1  2  2  2  3  3  3  4  4  4  1  1  1  1  1
TYPE ASSIGNMENTS      1  2  2  2  3  3  3  4  4  4  1  1  1  1  1  1  2  2  2  3
TYPE ASSIGNMENTS      3  3  4  4  4  1  1  1  1  1  1  2  2  2  3  3  3  4  4  4
TYPE ASSIGNMENTS      1  1  1  1  1  1  2  2  2  3  3  3  4  4  4  1  1  1  1  1
TYPE ASSIGNMENTS      1  2  2  2  3  3  3  4  4  4  1  1  1  1  1  1  2  2  2  3
TYPE ASSIGNMENTS      3  3  4  4  4  1  1  1  1  1  1  2  2  2  3  3  3  4  4  4
TYPE ASSIGNMENTS      1  1  1  1  1  1  2  2  2  3  3  3  4  4  4  1  1  1  1  1
TYPE ASSIGNMENTS      1  1  1  1  1  1  1  1  1  1  1  1  1  1  1  1  1  1  1  1
TYPE ASSIGNMENTS      1  1  1  1  1  1  1  1  1  1  1  1  1  1
EXPONENTS  0.1307093D+03 0.2380887D+02 0.6443608D+01 0.5033151D+01 0.1169596D+01
EXPONENTS  0.3803890D+00 0.5033151D+01 0.1169596D+01 0.3803890D+00 0.5033151D+01
EXPONENTS  0.1169596D+01 0.3803890D+00 0.5033151D+01 0.1169596D+01 0.3803890D+00
EXPONENTS  0.1307093D+03 0.2380887D+02 0.6443608D+01 0.5033151D+01 0.1169596D+01
EXPONENTS  0.3803890D+00 0.5033151D+01 0.1169596D+01 0.3803890D+00 0.5033151D+01
EXPONENTS  0.1169596D+01 0.3803890D+00 0.5033151D+01 0.1169596D+01 0.3803890D+00
EXPONENTS  0.9910617D+02 0.1805231D+02 0.4885660D+01 0.3780456D+01 0.8784966D+00
EXPONENTS  0.2857144D+00 0.3780456D+01 0.8784966D+00 0.2857144D+00 0.3780456D+01
EXPONENTS  0.8784966D+00 0.2857144D+00 0.3780456D+01 0.8784966D+00 0.2857144D+00
EXPONENTS  0.7161684D+02 0.1304510D+02 0.3530512D+01 0.2941249D+01 0.6834831D+00
EXPONENTS  0.2222899D+00 0.2941249D+01 0.6834831D+00 0.2222899D+00 0.2941249D+01
EXPONENTS  0.6834831D+00 0.2222899D+00 0.2941249D+01 0.6834831D+00 0.2222899D+00
EXPONENTS  0.7161684D+02 0.1304510D+02 0.3530512D+01 0.2941249D+01 0.6834831D+00
EXPONENTS  0.2222899D+00 0.2941249D+01 0.6834831D+00 0.2222899D+00 0.2941249D+01
EXPONENTS  0.6834831D+00 0.2222899D+00 0.2941249D+01 0.6834831D+00 0.2222899D+00
EXPONENTS  0.7161684D+02 0.1304510D+02 0.3530512D+01 0.2941249D+01 0.6834831D+00
EXPONENTS  0.2222899D+00 0.2941249D+01 0.6834831D+00 0.2222899D+00 0.2941249D+01
EXPONENTS  0.6834831D+00 0.2222899D+00 0.2941249D+01 0.6834831D+00 0.2222899D+00
EXPONENTS  0.7161684D+02 0.1304510D+02 0.3530512D+01 0.2941249D+01 0.6834831D+00
EXPONENTS  0.2222899D+00 0.2941249D+01 0.6834831D+00 0.2222899D+00 0.2941249D+01
EXPONENTS  0.6834831D+00 0.2222899D+00 0.2941249D+01 0.6834831D+00 0.2222899D+00
EXPONENTS  0.7161684D+02 0.1304510D+02 0.3530512D+01 0.2941249D+01 0.6834831D+00
EXPONENTS  0.2222899D+00 0.2941249D+01 0.6834831D+00 0.2222899D+00 0.2941249D+01
EXPONENTS  0.6834831D+00 0.2222899D+00 0.2941249D+01 0.6834831D+00 0.2222899D+00
EXPONENTS  0.7161684D+02 0.1304510D+02 0.3530512D+01 0.2941249D+01 0.6834831D+00
EXPONENTS  0.2222899D+00 0.2941249D+01 0.6834831D+00 0.2222899D+00 0.2941249D+01
EXPONENTS  0.6834831D+00 0.2222899D+00 0.2941249D+01 0.6834831D+00 0.2222899D+00
EXPONENTS  0.3425251D+01 0.6239137D+00 0.1688554D+00 0.3425251D+01 0.6239137D+00
EXPONENTS  0.1688554D+00 0.3425251D+01 0.6239137D+00 0.1688554D+00 0.3425251D+01
EXPONENTS  0.6239137D+00 0.1688554D+00 0.3425251D+01 0.6239137D+00 0.1688554D+00
EXPONENTS  0.3425251D+01 0.6239137D+00 0.1688554D+00 0.3425251D+01 0.6239137D+00
EXPONENTS  0.1688554D+00 0.3425251D+01 0.6239137D+00 0.1688554D+00 0.3425251D+01
EXPONENTS  0.6239137D+00 0.1688554D+00 0.3425251D+01 0.6239137D+00 0.1688554D+00
EXPONENTS  0.3425251D+01 0.6239137D+00 0.1688554D+00 0.3425251D+01 0.6239137D+00
EXPONENTS  0.1688554D+00 0.3425251D+01 0.6239137D+00 0.1688554D+00
MO    1     MO 0.0        OCC NO =    2.0000005  ORB. ENERGY =    0.000000
 -0.41273284D-01 -0.39917723D-01 -0.12440611D-01 -0.95467191D-04  0.12769508D-03
  0.96373382D-04  0.17431218D-03  0.10961218D-03  0.17364411D-04  0.74260762D-03
  0.46697160D-03  0.73976147D-04 -0.23475188D-03 -0.14761828D-03 -0.23385216D-04
 -0.99301263D+00 -0.96039858D+00 -0.29931429D+00 -0.10206041D-03  0.13651404D-03
  0.10302918D-03  0.37733692D-02  0.23727958D-02  0.37589072D-03 -0.15308229D-02
 -0.96262255D-03 -0.15249558D-03 -0.39661783D-02 -0.24940394D-02 -0.39509774D-03
  0.33113836D+01  0.32026261D+01  0.99811866D+00 -0.26314995D-02  0.35198431D-02
  0.26564781D-02 -0.16152562D-01 -0.10157165D-01 -0.16090655D-02  0.15965239D-02
  0.10039371D-02  0.15904050D-03 -0.17578828D-01 -0.11054038D-01 -0.17511454D-02
  0.21187942D-01  0.20492055D-01  0.63864784D-02 -0.93812151D-04  0.12548133D-03
  0.94702632D-04  0.40491481D-03  0.25462130D-03  0.40336292D-04  0.22758194D-03
  0.14310963D-03  0.22670970D-04 -0.37007990D-04 -0.23271618D-04 -0.36866152D-05
  0.51442402D-01  0.49752852D-01  0.15505791D-01 -0.20795393D-04  0.27815518D-04
  0.20992787D-04 -0.90112163D-04 -0.56664946D-04 -0.89766795D-05  0.37355615D-03
  0.23490213D-03  0.37212444D-04 -0.49247899D-03 -0.30968400D-03 -0.49059149D-04
 -0.39814263D-01 -0.38506622D-01 -0.12000832D-01  0.62666718D-03 -0.83821798D-03
 -0.63261562D-03 -0.26457657D-02 -0.16637285D-02 -0.26356254D-03 -0.26398727D-02
 -0.16600228D-02 -0.26297551D-03 -0.11975804D-02 -0.75307071D-03 -0.11929905D-03
 -0.20151169D-02 -0.19489334D-02 -0.60739740D-03  0.77465039D-05 -0.10361575D-04
 -0.78200351D-05 -0.49693382D-04 -0.31248532D-04 -0.49502925D-05 -0.47998568D-04
 -0.30182788D-04 -0.47814606D-05 -0.27920766D-04 -0.17557327D-04 -0.27813755D-05
  0.19676363D-02  0.19030122D-02  0.59308577D-03  0.28289139D-05 -0.37839009D-05
 -0.28557665D-05 -0.46590083D-04 -0.29297094D-04 -0.46411519D-05 -0.20468635D-04
 -0.12871227D-04 -0.20390186D-05  0.11217251D-04  0.70537086D-05  0.11174260D-05
 -0.39053963D+00 -0.37771292D+00 -0.11771662D+00  0.60626033D-03 -0.81092217D-03
 -0.61201506D-03  0.90196436D-04  0.56717939D-04  0.89850745D-05  0.27862503D-03
  0.17520690D-03  0.27755716D-04 -0.50714695D-03 -0.31890761D-03 -0.50520324D-04
 -0.14116278D-03 -0.13652649D-03 -0.42549344D-04  0.26134950D-04  0.25276586D-04
  0.78776077D-05  0.30254175D-04  0.29260521D-04  0.91192264D-05  0.24689698D-03
  0.23878801D-03  0.74419793D-04 -0.29455904D-04 -0.28488468D-04 -0.88786112D-05
 -0.16802646D-04 -0.16250787D-04 -0.50646606D-05  0.35634563D-04  0.34464198D-04
  0.10740985D-04 -0.13043369D-04 -0.12614978D-04 -0.39315377D-05 -0.12989657D-04
 -0.12563031D-04 -0.39153480D-05  0.33238449D-04  0.32146780D-04  0.10018747D-04
 -0.16108455D-02 -0.15579396D-02 -0.48554174D-03 -0.15917197D-02 -0.15394420D-02
 -0.47977683D-03  0.17542426D-03  0.16966271D-03  0.52876456D-04
MO    2     MO 0.0        OCC NO =    2.0000005  ORB. ENERGY =    0.000000
  0.13785039D+00  0.13332290D+00  0.41550924D-01  0.26441333D-03 -0.35367419D-03
 -0.26692319D-03  0.36879556D-03  0.23190854D-03  0.36738209D-04 -0.20333089D-02
 -0.12785992D-02 -0.20255160D-03  0.95462891D-03  0.60029628D-03  0.95097016D-04
  0.36081339D+01  0.34896300D+01  0.10875653D+01 -0.13845684D-03  0.18519721D-03
  0.13977109D-03 -0.12228418D-01 -0.76895573D-02 -0.12181551D-02  0.35834468D-02
  0.22533675D-02  0.35697127D-03  0.14772471D-01  0.92893265D-02  0.14715854D-02
  0.94520340D+00  0.91415958D+00  0.28490361D+00 -0.90448648D-03  0.12098237D-02
  0.91307202D-03 -0.41679971D-02 -0.26209484D-02 -0.41520226D-03  0.30712303D-03
  0.19312720D-03  0.30594593D-04 -0.48197958D-02 -0.30308169D-02 -0.48013232D-03
  0.70339708D-02  0.68029504D-02  0.21201825D-02 -0.29986915D-04  0.40109922D-04
  0.30271556D-04  0.10632588D-03  0.66860568D-04  0.10591837D-04  0.46860111D-04
  0.29466895D-04  0.46680512D-05 -0.25240717D-04 -0.15872040D-04 -0.25143978D-05
  0.27137729D-01  0.26246430D-01  0.81798658D-02 -0.79618907D-04  0.10649672D-03
  0.80374663D-04  0.12377420D-03  0.77832539D-04  0.12329982D-04 -0.97805374D-05
 -0.61502644D-05 -0.97430521D-06 -0.12686471D-03 -0.79775937D-04 -0.12637849D-04
 -0.22834251D-01 -0.22084293D-01 -0.68827096D-02  0.83894563D-03 -0.11221576D-02
 -0.84690904D-03 -0.22266377D-02 -0.14001695D-02 -0.22181038D-03  0.21564329D-02
  0.13560228D-02  0.21481680D-03 -0.95255997D-04 -0.59899527D-04 -0.94890915D-05
 -0.31740770D-02 -0.30698291D-02 -0.95673163D-03  0.99774976D-05 -0.13345709D-04
 -0.10072206D-04 -0.13912835D-04 -0.87487640D-05 -0.13859512D-05 -0.11730245D-04
 -0.73762927D-05 -0.11685287D-05 -0.21997749D-04 -0.13832775D-04 -0.21913440D-05
  0.45525632D-03  0.44030409D-03  0.13722355D-03 -0.15936763D-04  0.21316708D-04
  0.16088037D-04 -0.66467823D-04 -0.41796751D-04 -0.66213075D-05 -0.12160295D-03
 -0.76467201D-04 -0.12113689D-04  0.45262176D-04  0.28462071D-04  0.45088702D-05
  0.12094697D+01  0.11697464D+01  0.36455886D+00 -0.19073635D-02  0.25512528D-02
  0.19254685D-02 -0.14439808D-02 -0.90801390D-03 -0.14384466D-03 -0.20267256D-03
 -0.12744595D-03 -0.20189579D-04  0.20865882D-02  0.13121027D-02  0.20785911D-03
 -0.34500293D-04 -0.33367182D-04 -0.10399093D-04 -0.15102499D-04 -0.14606479D-04
 -0.45522016D-05 -0.11446020D-03 -0.11070092D-03 -0.34500642D-04  0.19225639D-03
  0.18594201D-03  0.57950002D-04 -0.34727022D-05 -0.33586464D-05 -0.10467434D-05
 -0.49397203D-05 -0.47774824D-05 -0.14889326D-05  0.18410610D-04  0.17805941D-04
  0.55493340D-05 -0.29155447D-04 -0.28197879D-04 -0.87880471D-05 -0.10945879D-03
 -0.10586378D-03 -0.32993116D-04  0.40716183D-05  0.39378920D-05  0.12272689D-05
 -0.56799882D-03 -0.54934373D-03 -0.17120645D-03 -0.55900550D-03 -0.54064578D-03
 -0.16849568D-03 -0.46546599D-03 -0.45017844D-03 -0.14030096D-03
MO    3     MO 0.0        OCC NO =    2.0000003  ORB. ENERGY =    0.000000
  0.41946728D+01  0.40569049D+01  0.12643600D+01 -0.62596688D-03  0.83728127D-03
  0.63190867D-03  0.12884027D-01  0.81018219D-02  0.12834647D-02 -0.15517863D-02
 -0.97580489D-03 -0.15458389D-03 -0.17286523D-01 -0.10870229D-01 -0.17220270D-02
 -0.43449496D+00 -0.42022461D+00 -0.13096566D+00 -0.39198052D-04  0.52430561D-04
  0.39570126D-04  0.15616694D-02  0.98201961D-03  0.15556841D-03 -0.43433838D-03
 -0.27312363D-03 -0.43267372D-04 -0.18844397D-02 -0.11849863D-02 -0.18772173D-03
  0.12375284D-01  0.11968836D-01  0.37301634D-02  0.33218723D-05 -0.44432726D-05
 -0.33534041D-05 -0.18566770D-04 -0.11675284D-04 -0.18495611D-05  0.10845902D-03
  0.68201945D-04  0.10804334D-04 -0.45689766D-04 -0.28730951D-04 -0.45514654D-05
  0.51011191D-02  0.49335803D-02  0.15375815D-02  0.15065181D-04 -0.20150897D-04
 -0.15208183D-04 -0.74013262D-05 -0.46541525D-05 -0.73729595D-06  0.85364189D-04
  0.53679293D-04  0.85037019D-05 -0.47364250D-05 -0.29783911D-05 -0.47182719D-06
  0.16107049D-02  0.15578037D-02  0.48549936D-03  0.11381954D-04 -0.15224283D-04
 -0.11489993D-04 -0.43248123D-04 -0.27195580D-04 -0.43082368D-05  0.10618145D-04
  0.66769744D-05  0.10577449D-05 -0.45424588D-04 -0.28564200D-04 -0.45250492D-05
  0.64934263D-01  0.62801592D-01  0.19572513D-01 -0.91803183D-04  0.12279417D-03
  0.92674595D-04 -0.38694027D-03 -0.24331842D-03 -0.38545726D-04  0.35781418D-03
  0.22500316D-03  0.35644280D-04  0.40256311D-03  0.25314249D-03  0.40102023D-04
  0.98873880D-02  0.95626512D-02  0.29802607D-02 -0.28304073D-04  0.37858985D-04
  0.28572740D-04  0.10971158D-04  0.68989585D-05  0.10929109D-05  0.15773578D-05
  0.99188491D-06  0.15713123D-06  0.16499309D-04  0.10375208D-04  0.16436073D-05
  0.82370776D-01  0.79665429D-01  0.24828234D-01 -0.29431200D-03  0.39366608D-03
  0.29710566D-03  0.13028142D-03  0.81924455D-04  0.12978210D-04 -0.12165187D-03
 -0.76497961D-04 -0.12118562D-04  0.19963845D-03  0.12553802D-03  0.19887331D-04
  0.32120705D+00  0.31065748D+00  0.96818366D-01 -0.25037160D-03  0.33489224D-03
  0.25274817D-03  0.21807609D-02  0.13713210D-02  0.21724029D-03  0.11115067D-02
  0.69894522D-03  0.11072467D-03 -0.39275340D-02 -0.24697387D-02 -0.39124811D-03
 -0.12253723D-06 -0.11851267D-06 -0.36935224D-07 -0.59453175D-05 -0.57500523D-05
 -0.17920401D-05 -0.16476341D-04 -0.15935200D-04 -0.49663059D-05 -0.23250389D-03
 -0.22486764D-03 -0.70081421D-04 -0.22688214D-04 -0.21943053D-04 -0.68386911D-05
 -0.70816208D-05 -0.68490353D-05 -0.21345451D-05 -0.78828974D-05 -0.76239951D-05
 -0.23760663D-05 -0.65781177D-04 -0.63620690D-04 -0.19827790D-04 -0.45513835D-03
 -0.44019000D-03 -0.13718799D-03 -0.61349758D-04 -0.59334815D-04 -0.18492070D-04
 -0.32615158D-04 -0.31543961D-04 -0.98308748D-05 -0.10130257D-04 -0.97975438D-05
 -0.30534665D-05 -0.13973836D-02 -0.13514886D-02 -0.42119997D-03
MO    4     MO 0.0        OCC NO =    2.0000002  ORB. ENERGY =    0.000000
  0.62214837D+00  0.60171482D+00  0.18752823D+00 -0.12523276D-02  0.16750893D-02
  0.12642149D-02  0.22093042D-02  0.13892698D-02  0.22008367D-03  0.25923027D-02
  0.16301095D-02  0.25823673D-03 -0.47992533D-02 -0.30178993D-02 -0.47808595D-03
  0.19466613D+01  0.18827261D+01  0.58676348D+00 -0.78761451D-03  0.10534980D-02
  0.79509068D-03 -0.55597051D-02 -0.34960918D-02 -0.55383967D-03  0.17611319D-02
  0.11074470D-02  0.17543822D-03  0.66127303D-02  0.41582623D-02  0.65873861D-03
 -0.52361556D-01 -0.50641817D-01 -0.15782842D-01  0.26003645D-03 -0.34781975D-03
 -0.26250476D-03  0.87819990D-03  0.55223566D-03  0.87483407D-04  0.39775425D-03
  0.25011854D-03  0.39622980D-04  0.28632521D-03  0.18004897D-03  0.28522782D-04
  0.31070054D-02  0.30049603D-02  0.93651488D-03  0.23859075D-04 -0.31913440D-04
 -0.24085549D-04 -0.85702959D-04 -0.53892320D-04 -0.85374490D-05  0.47339438D-05
  0.29768309D-05  0.47158003D-06  0.38861816D-04  0.24437352D-04  0.38712872D-05
  0.40072195D-01  0.38756083D-01  0.12078578D-01  0.78068007D-04 -0.10442227D-03
 -0.78809042D-04 -0.57019294D-03 -0.35855262D-03 -0.56800760D-04 -0.57975150D-04
 -0.36456330D-04 -0.57752952D-05 -0.38274805D-03 -0.24068225D-03 -0.38128111D-04
  0.45221663D+00  0.43736424D+00  0.13630733D+00 -0.21529568D-02  0.28797536D-02
  0.21733930D-02  0.26020541D-02  0.16362414D-02  0.25920813D-03 -0.37382897D-02
 -0.23507369D-02 -0.37239622D-03 -0.83169796D-03 -0.52299400D-03 -0.82851036D-04
  0.30269962D-03  0.29275790D-03  0.91239849D-04  0.29699555D-05 -0.39725554D-05
 -0.29981468D-05 -0.19442187D-04 -0.12225769D-04 -0.19367672D-05  0.12690604D-04
  0.79801922D-05  0.12641965D-05 -0.60110582D-05 -0.37799147D-05 -0.59880200D-06
  0.17112026D-01  0.16550007D-01  0.51579143D-02 -0.22422128D-04  0.29991408D-04
  0.22634963D-04  0.13336704D-03  0.83864772D-04  0.13285589D-04  0.18220617D-03
  0.11457613D-03  0.18150783D-04 -0.70883277D-04 -0.44573306D-04 -0.70611606D-05
 -0.23076677D+01 -0.22318757D+01 -0.69557817D+00  0.57384203D-02 -0.76756008D-02
 -0.57928904D-02 -0.28792551D-02 -0.18105529D-02 -0.28682199D-03  0.18143361D-02
  0.11409032D-02  0.18073824D-03  0.27864518D-02  0.17521956D-02  0.27757723D-03
 -0.11368046D-04 -0.10994679D-04 -0.34265613D-05 -0.19099194D-04 -0.18471909D-04
 -0.57568872D-05  0.87008291D-04  0.84150631D-04  0.26226076D-04 -0.41572731D-03
 -0.40207335D-03 -0.12530870D-03 -0.20375715D-05 -0.19706505D-05 -0.61416568D-06
  0.14381008D-05  0.13908685D-05  0.43347297D-06  0.43185825D-06  0.41767450D-06
  0.13017090D-06  0.24352337D-04  0.23552521D-04  0.73402919D-05  0.11853699D-03
  0.11464382D-03  0.35729471D-04  0.17745352D-04  0.17162532D-04  0.53488115D-05
  0.13051916D-03  0.12623245D-03  0.39341142D-04 -0.16335285D-05 -0.15798777D-05
 -0.49237886D-06  0.17071214D-03  0.16510535D-03  0.51456126D-04
MO    5     MO 0.0        OCC NO =    2.0000001  ORB. ENERGY =    0.000000
 -0.90842538D-01 -0.87858948D-01 -0.27381796D-01  0.11104153D-03 -0.14852702D-03
 -0.11209555D-03 -0.19034374D-03 -0.11969325D-03 -0.18961422D-04  0.54817802D-04
  0.34470905D-04  0.54607704D-05  0.29807206D-03  0.18743571D-03  0.29692965D-04
 -0.60175831D-01 -0.58199444D-01 -0.18138224D-01  0.42654778D-04 -0.57054212D-04
 -0.43059665D-04  0.46806533D-04  0.29433204D-04  0.46627140D-05  0.13306131D-03
  0.83672522D-04  0.13255133D-04 -0.21502160D-03 -0.13521136D-03 -0.21419750D-04
 -0.40312600D-01 -0.38988591D-01 -0.12151041D-01  0.16344933D-03 -0.21862668D-03
 -0.16500082D-03  0.42961179D-03  0.27015142D-03  0.42796524D-04  0.30819123D-03
  0.19379891D-03  0.30701004D-04  0.12616965D-03  0.79338864D-04  0.12568609D-04
  0.20823602D+01  0.20139681D+01  0.62766590D+00 -0.46318677D-02  0.61954972D-02
  0.46758342D-02 -0.97427558D-03 -0.61265063D-03 -0.97054153D-04  0.25076720D-03
  0.15768914D-03  0.24980610D-04 -0.83223029D-03 -0.52332874D-03 -0.82904064D-04
  0.10369565D+01  0.10028992D+01  0.31255987D+00 -0.19574233D-02  0.26182118D-02
  0.19760035D-02  0.19159986D-02  0.12048314D-02  0.19086553D-03  0.17335625D-02
  0.10901106D-02  0.17269184D-03 -0.78850397D-03 -0.49583245D-03 -0.78548191D-04
  0.35832153D+00  0.34655298D+00  0.10800543D+00 -0.56874610D-03  0.76074385D-03
  0.57414473D-03  0.10700769D-02  0.67289308D-03  0.10659757D-03 -0.53402890D-04
 -0.33581170D-04 -0.53198215D-05  0.88311034D-03  0.55532348D-03  0.87972569D-04
  0.88874121D+00  0.85955180D+00  0.26788475D+00 -0.16687769D-02  0.22321239D-02
  0.16846172D-02 -0.13661259D-02 -0.85905661D-03 -0.13608900D-03  0.59831257D-03
  0.37623500D-03  0.59601945D-04  0.23260905D-02  0.14627081D-02  0.23171754D-03
  0.92349879D+00  0.89316783D+00  0.27836140D+00 -0.17670327D-02  0.23635490D-02
  0.17838057D-02  0.35782792D-03  0.22501180D-03  0.35645649D-04 -0.27205803D-02
 -0.17107739D-02 -0.27101533D-03 -0.28672987D-03 -0.18030344D-03 -0.28563094D-04
  0.68895666D-01  0.66632889D-01  0.20766561D-01 -0.69567087D-04  0.93051599D-04
  0.70227430D-04  0.35962054D-03  0.22613905D-03  0.35824224D-04 -0.46542989D-03
 -0.29267481D-03 -0.46364606D-04 -0.11096770D-03 -0.69779467D-04 -0.11054240D-04
 -0.16642110D-02 -0.16095525D-02 -0.50162720D-03 -0.84579377D-03 -0.81801491D-03
 -0.25493952D-03 -0.82584238D-03 -0.79871880D-03 -0.24892576D-03 -0.35650116D-03
 -0.34479240D-03 -0.10745673D-03 -0.75467704D-03 -0.72989078D-03 -0.22747507D-03
 -0.71625544D-03 -0.69273107D-03 -0.21589402D-03 -0.69583576D-03 -0.67298205D-03
 -0.20973911D-03 -0.74383030D-03 -0.71940029D-03 -0.22420565D-03 -0.80537925D-03
 -0.77892775D-03 -0.24275776D-03 -0.73025924D-03 -0.70627494D-03 -0.22011505D-03
 -0.18008798D-04 -0.17417326D-04 -0.54282196D-05 -0.37953273D-04 -0.36706753D-04
 -0.11439892D-04  0.24328130D-04  0.23529108D-04  0.73329952D-05
MO    6     MO 0.0        OCC NO =    2.0000001  ORB. ENERGY =    0.000000
 -0.13026416D+00 -0.12598582D+00 -0.39264278D-01  0.21203313D-03 -0.28361145D-03
 -0.21404579D-03 -0.27274929D-03 -0.17151207D-03 -0.27170394D-04  0.55622900D-05
  0.34977172D-05  0.55409717D-06  0.39336952D-03  0.24736131D-03  0.39186188D-04
 -0.25740741D+00 -0.24895324D+00 -0.77587851D-01  0.15970514D-03 -0.21361852D-03
 -0.16122109D-03  0.23144630D-03  0.14553964D-03  0.23055925D-04  0.88628210D-03
  0.55731797D-03  0.88288530D-04 -0.88993520D-03 -0.55961513D-03 -0.88652439D-04
  0.19880330D-01  0.19227390D-01  0.59923377D-02  0.56350837D-03 -0.75373796D-03
 -0.56885728D-03  0.20303077D-02  0.12767120D-02  0.20225263D-03  0.20688009D-02
  0.13009175D-02  0.20608719D-03  0.27345014D-04  0.17195279D-04  0.27240210D-05
 -0.55928164D+00 -0.54091285D+00 -0.16857891D+00  0.15871227D-02 -0.21229048D-02
 -0.16021879D-02 -0.17562349D-02 -0.11043676D-02 -0.17495038D-03 -0.16145872D-02
 -0.10152958D-02 -0.16083991D-03  0.83432601D-03  0.52464658D-03  0.83112833D-04
  0.14301329D+01  0.13831623D+01  0.43107126D+00 -0.33203877D-02  0.44412868D-02
  0.33519054D-02 -0.25898843D-02 -0.16285888D-02 -0.25799582D-03  0.19697656D-03
  0.12386414D-03  0.19622162D-04 -0.18039813D-02 -0.11343919D-02 -0.17970673D-03
  0.20026361D+01  0.19368624D+01  0.60363542D+00 -0.45801316D-02  0.61262961D-02
  0.46236070D-02  0.15205988D-02  0.95619331D-03  0.15147709D-03 -0.50978907D-04
 -0.32056905D-04 -0.50783523D-05  0.12538903D-02  0.78847987D-03  0.12490846D-03
 -0.57928820D+00 -0.56026233D+00 -0.17460930D+00  0.13891853D-02 -0.18581476D-02
 -0.14023717D-02  0.22189242D-03  0.13953191D-03  0.22104199D-04 -0.19178357D-03
 -0.12059866D-03 -0.19104853D-04 -0.67086311D-03 -0.42185673D-03 -0.66829193D-04
 -0.59630301D+00 -0.57671831D+00 -0.17973791D+00  0.14124452D-02 -0.18892595D-02
 -0.14258523D-02 -0.18552618D-03 -0.11666384D-03 -0.18481512D-04  0.62856228D-03
  0.39525683D-03  0.62615322D-04  0.11639072D-03  0.73189605D-04  0.11594463D-04
  0.31398660D+00  0.30367417D+00  0.94641975D-01 -0.14771513D-03  0.19758092D-03
  0.14911726D-03  0.17492442D-02  0.10999717D-02  0.17425400D-03 -0.24894414D-02
 -0.15654276D-02 -0.24799003D-03 -0.85446545D-03 -0.53731080D-03 -0.85119058D-04
  0.45461486D-03  0.43968370D-03  0.13703021D-03 -0.11887375D-02 -0.11496952D-02
 -0.35830977D-03 -0.11317947D-02 -0.10946226D-02 -0.34114604D-03 -0.17194574D-02
 -0.16629843D-02 -0.51827957D-03  0.49382961D-03  0.47761050D-03  0.14885033D-03
  0.45355954D-03  0.43866304D-03  0.13671211D-03  0.46019789D-03  0.44508337D-03
  0.13871304D-03  0.45974307D-03  0.44464348D-03  0.13857595D-03  0.44788346D-03
  0.43317339D-03  0.13500122D-03  0.45571827D-03  0.44075087D-03  0.13736280D-03
 -0.17607874D-03 -0.17029569D-03 -0.53073728D-04 -0.21873795D-03 -0.21155382D-03
 -0.65932087D-04 -0.49144411D-04 -0.47530335D-04 -0.14813129D-04
MO    7     MO 0.0        OCC NO =    2.0000000  ORB. ENERGY =    0.000000
  0.12383912D+00  0.11977180D+00  0.37327640D-01 -0.15884716D-03  0.21247091D-03
  0.16035497D-03  0.18903793D-03  0.11887212D-03  0.18831341D-04 -0.84841508D-04
 -0.53350617D-04 -0.84516340D-05 -0.42521824D-03 -0.26738864D-03 -0.42358853D-04
  0.43577595D-01  0.42146352D-01  0.13135177D-01 -0.25703010D-04  0.34379852D-04
  0.25946987D-04 -0.42048372D-05 -0.26441145D-05 -0.41887215D-06 -0.24805427D-03
 -0.15598318D-03 -0.24710357D-04  0.21085350D-03  0.13259034D-03  0.21004537D-04
 -0.19597393D-01 -0.18953746D-01 -0.59070547D-02 -0.11005694D-03  0.14721005D-03
  0.11110162D-03 -0.44464495D-03 -0.27960468D-03 -0.44294079D-04 -0.49245436D-03
 -0.30966852D-03 -0.49056696D-04  0.42275921D-04  0.26584233D-04  0.42113892D-05
  0.92267392D-01  0.89237004D-01  0.27811276D-01 -0.24578456D-03  0.32875671D-03
  0.24811759D-03  0.86420998D-03  0.54343843D-03  0.86089777D-04 -0.33015172D-02
 -0.20760826D-02 -0.32888636D-03 -0.18874125D-02 -0.11868556D-02 -0.18801787D-03
  0.43433581D+00  0.42007069D+00  0.13091768D+00 -0.12793168D-02  0.17111896D-02
  0.12914603D-02  0.61284747D-03  0.38537493D-03  0.61049864D-04 -0.12636227D-05
 -0.79459989D-06 -0.12587797D-06  0.25150274D-03  0.15815167D-03  0.25053881D-04
 -0.42056641D+00 -0.40675352D+00 -0.12676731D+00  0.12034488D-02 -0.16097099D-02
 -0.12148721D-02  0.43553625D-03  0.27387688D-03  0.43386700D-04 -0.10239395D-03
 -0.64388063D-04 -0.10200151D-04  0.30670908D-03  0.19286690D-03  0.30553357D-04
  0.15980180D+01  0.15455334D+01  0.48167527D+00 -0.43072841D-02  0.57613404D-02
  0.43481696D-02 -0.10489972D-03 -0.65963759D-04 -0.10449768D-04 -0.14900405D-03
 -0.93697748D-04 -0.14843297D-04  0.13823895D-03  0.86928363D-04  0.13770913D-04
 -0.20605442D+01 -0.19928686D+01 -0.62109010D+00  0.56356538D-02 -0.75381422D-02
 -0.56891484D-02  0.13619508D-03  0.85643120D-04  0.13567309D-04 -0.18854173D-03
 -0.11856010D-03 -0.18781912D-04 -0.52926550D-04 -0.33281635D-04 -0.52723702D-05
 -0.62175411D-01 -0.60133351D-01 -0.18740939D-01  0.33300843D-04 -0.44542568D-04
 -0.33616940D-04 -0.44531298D-03 -0.28002475D-03 -0.44360625D-04  0.54809123D-03
  0.34465447D-03  0.54599059D-04  0.40202442D-04  0.25280374D-04  0.40048361D-05
 -0.63633150D-04 -0.61543212D-04 -0.19180331D-04 -0.34357429D-03 -0.33229010D-03
 -0.10356031D-03 -0.33391481D-03 -0.32294787D-03 -0.10064874D-03  0.34715371D-03
  0.33575195D-03  0.10463922D-03 -0.12686276D-02 -0.12269614D-02 -0.38239029D-03
 -0.12688761D-02 -0.12272017D-02 -0.38246518D-03 -0.12665088D-02 -0.12249122D-02
 -0.38175162D-03  0.16312741D-02  0.15776973D-02  0.49169933D-03  0.16621897D-02
  0.16075975D-02  0.50101792D-03  0.16259226D-02  0.15725216D-02  0.49008629D-03
  0.36148613D-04  0.34961365D-04  0.10895930D-04  0.41505373D-04  0.40142190D-04
  0.12510567D-04 -0.51436893D-04 -0.49747524D-04 -0.15504130D-04
MO    8     MO 0.0        OCC NO =    2.0000000  ORB. ENERGY =    0.000000
 -0.13884287D+00 -0.13428278D+00 -0.41850078D-01  0.21021312D-03 -0.28117703D-03
 -0.21220850D-03 -0.26378807D-03 -0.16587702D-03 -0.26277707D-04  0.11500530D-04
  0.72318417D-05  0.11456452D-05  0.43721422D-03  0.27493204D-03  0.43553853D-04
 -0.15176929D+00 -0.14678465D+00 -0.45746363D-01  0.82356617D-04 -0.11015863D-03
 -0.83138360D-04  0.12746784D-03  0.80155200D-04  0.12697930D-04  0.79380895D-03
  0.49916837D-03  0.79076656D-04 -0.61858574D-03 -0.38898332D-03 -0.61621493D-04
  0.89539532D-01  0.86598737D-01  0.26989044D-01  0.37982354D-03 -0.50804467D-03
 -0.38342889D-03  0.15871689D-02  0.99805438D-03  0.15810858D-03  0.18306119D-02
  0.11511379D-02  0.18235958D-03 -0.11191161D-03 -0.70373021D-04 -0.11148269D-04
 -0.11850806D+00 -0.11461584D+00 -0.35720750D-01  0.24848976D-03 -0.33237513D-03
 -0.25084847D-03  0.26081572D-02  0.16400792D-02  0.25981610D-03  0.12337829D-02
  0.77583578D-03  0.12290542D-03 -0.16343435D-02 -0.10277191D-02 -0.16280797D-03
 -0.16899522D+01 -0.16344482D+01 -0.50938612D+00  0.50465904D-02 -0.67502224D-02
 -0.50944935D-02 -0.18901132D-02 -0.11885539D-02 -0.18828691D-03 -0.19412691D-03
 -0.12207221D-03 -0.19338289D-04 -0.12839806D-02 -0.80740148D-03 -0.12790596D-03
  0.15867332D+01  0.15346193D+01  0.47827380D+00 -0.45404834D-02  0.60732634D-02
  0.45835825D-02 -0.15064972D-02 -0.94732589D-03 -0.15007234D-03  0.22929493D-03
  0.14418680D-03  0.22841612D-04 -0.14048546D-02 -0.88341028D-03 -0.13994703D-03
  0.12800257D+01  0.12379851D+01  0.38582588D+00 -0.35041604D-02  0.46870977D-02
  0.35374225D-02  0.47227483D-04  0.29697909D-04  0.47046477D-05  0.40748633D-04
  0.25623834D-04  0.40592458D-05 -0.22459535D-03 -0.14123158D-03 -0.22373456D-04
  0.29527815D+00  0.28558017D+00  0.89002866D-01 -0.84921208D-03  0.11358898D-02
  0.85727295D-03  0.29396532D-04  0.18485328D-04  0.29283865D-05  0.19471451D-03
  0.12244171D-03  0.19396824D-04 -0.85134462D-04 -0.53534834D-04 -0.84808172D-05
  0.21882129D+00  0.21163442D+00  0.65957205D-01 -0.50123532D-04  0.67044274D-04
  0.50599314D-04  0.13606471D-02  0.85561138D-03  0.13554322D-03 -0.19829100D-02
 -0.12469070D-02 -0.19753102D-03 -0.56251054D-03 -0.35372173D-03 -0.56035464D-04
  0.46818394D-04  0.45280713D-04  0.14112020D-04  0.13116042D-02  0.12685265D-02
  0.39534429D-03  0.13248540D-02  0.12813411D-02  0.39933806D-03 -0.13393526D-02
 -0.12953635D-02 -0.40370822D-03 -0.10058354D-02 -0.97280016D-03 -0.30317932D-03
 -0.10097453D-02 -0.97658172D-03 -0.30435787D-03 -0.98977737D-03 -0.95726958D-03
 -0.29833912D-03 -0.23470885D-03 -0.22700018D-03 -0.70746042D-04 -0.26897499D-03
 -0.26014090D-03 -0.81074556D-04 -0.22894661D-03 -0.22142719D-03 -0.69009185D-04
 -0.14908505D-03 -0.14418857D-03 -0.44937278D-04 -0.18094638D-03 -0.17500346D-03
 -0.54540936D-04 -0.67538076D-05 -0.65319887D-05 -0.20357356D-05
MO    9     MO 0.0        OCC NO =    2.0000000  ORB. ENERGY =    0.000000
  0.40999392D-01  0.39652827D-01  0.12358054D-01 -0.47172688D-04  0.63097281D-04
  0.47620459D-04  0.24136633D-04  0.15177762D-04  0.24044126D-05 -0.84068048D-04
 -0.52864244D-04 -0.83745845D-05 -0.14828150D-03 -0.93243383D-04 -0.14771318D-04
 -0.30781161D-01 -0.29770199D-01 -0.92780707D-02  0.22287186D-04 -0.29810912D-04
 -0.22498740D-04  0.56116558D-04  0.35287597D-04  0.55901483D-05  0.19130145D-03
  0.12029548D-03  0.19056826D-04 -0.13226967D-03 -0.83174717D-04 -0.13176273D-04
  0.19361333D-01  0.18725438D-01  0.58359013D-02  0.11304877D-03 -0.15121187D-03
 -0.11412185D-03  0.42823674D-03  0.26928675D-03  0.42659546D-04  0.48509457D-03
  0.30504048D-03  0.48323538D-04 -0.27124683D-04 -0.17056729D-04 -0.27020724D-05