 opt leucine m062x
GAUSSIAN             36 MOL ORBITALS    174 PRIMITIVES       22 NUCLEI
  O    1    (CENTRE  1)   2.07655198 -2.79855159  2.07354547  CHARGE =  8.0
  O    2    (CENTRE  2)   4.05814125 -1.43228326 -1.59348601  CHARGE =  8.0
  N    3    (CENTRE  3)   3.08073469  3.56631791  0.54257173  CHARGE =  7.0
  C    4    (CENTRE  4)  -3.42470177  0.19650124 -0.97441350  CHARGE =  6.0
  C    5    (CENTRE  5)  -1.02679520  1.85407424 -1.37316287  CHARGE =  6.0
  C    6    (CENTRE  6)   1.11581726  1.50336273  0.62938814  CHARGE =  6.0
  C    7    (CENTRE  7)  -4.76172523  0.81800975  1.55460510  CHARGE =  6.0
  C    8    (CENTRE  8)  -2.83641809 -2.66361366 -1.14566696  CHARGE =  6.0
  C    9    (CENTRE  9)   2.59154625 -1.00739393  0.17760515  CHARGE =  6.0
  H   10    (CENTRE 10)  -4.73223472  0.68079244 -2.51919970  CHARGE =  1.0
  H   11    (CENTRE 11)  -0.23282268  1.47357434 -3.25537122  CHARGE =  1.0
  H   12    (CENTRE 12)  -1.60404110  3.85057502 -1.32922410  CHARGE =  1.0
  H   13    (CENTRE 13)   0.30229870  1.45954697  2.54451032  CHARGE =  1.0
  H   14    (CENTRE 14)  -3.60831730  0.21750671  3.16452900  CHARGE =  1.0
  H   15    (CENTRE 15)  -5.11595287  2.85162841  1.71656887  CHARGE =  1.0
  H   16    (CENTRE 16)  -6.57488515 -0.17553257  1.65889838  CHARGE =  1.0
  H   17    (CENTRE 17)  -1.90318126 -3.10768738 -2.94010026  CHARGE =  1.0
  H   18    (CENTRE 18)  -1.59132032 -3.23421822  0.40849012  CHARGE =  1.0
  H   19    (CENTRE 19)  -4.59038448 -3.75597980 -1.02869496  CHARGE =  1.0
  H   20    (CENTRE 20)   2.04663052  5.26850998  0.48022213  CHARGE =  1.0
  H   21    (CENTRE 21)   3.84451622  3.43837306 -1.29496856  CHARGE =  1.0
  H   22    (CENTRE 22)   3.17066646 -4.29027777  1.54573186  CHARGE =  1.0
CENTRE ASSIGNMENTS    1  1  1  1  1  1  1  1  1  1  1  1  1  1  1  2  2  2  2  2
CENTRE ASSIGNMENTS    2  2  2  2  2  2  2  2  2  2  3  3  3  3  3  3  3  3  3  3
CENTRE ASSIGNMENTS    3  3  3  3  3  4  4  4  4  4  4  4  4  4  4  4  4  4  4  4
CENTRE ASSIGNMENTS    5  5  5  5  5  5  5  5  5  5  5  5  5  5  5  6  6  6  6  6
CENTRE ASSIGNMENTS    6  6  6  6  6  6  6  6  6  6  7  7  7  7  7  7  7  7  7  7
CENTRE ASSIGNMENTS    7  7  7  7  7  8  8  8  8  8  8  8  8  8  8  8  8  8  8  8
CENTRE ASSIGNMENTS    9  9  9  9  9  9  9  9  9  9  9  9  9  9  9 10 10 10 11 11
CENTRE ASSIGNMENTS   11 12 12 12 13 13 13 14 14 14 15 15 15 16 16 16 17 17 17 18
CENTRE ASSIGNMENTS   18 18 19 19 19 20 20 20 21 21 21 22 22 22
TYPE ASSIGNMENTS      1  1  1  1  1  1  2  2  2  3  3  3  4  4  4  1  1  1  1  1
TYPE ASSIGNMENTS      1  2  2  2  3  3  3  4  4  4  1  1  1  1  1  1  2  2  2  3
TYPE ASSIGNMENTS      3  3  4  4  4  1  1  1  1  1  1  2  2  2  3  3  3  4  4  4
TYPE ASSIGNMENTS      1  1  1  1  1  1  2  2  2  3  3  3  4  4  4  1  1  1  1  1
TYPE ASSIGNMENTS      1  2  2  2  3  3  3  4  4  4  1  1  1  1  1  1  2  2  2  3
TYPE ASSIGNMENTS      3  3  4  4  4  1  1  1  1  1  1  2  2  2  3  3  3  4  4  4
TYPE ASSIGNMENTS      1  1  1  1  1  1  2  2  2  3  3  3  4  4  4  1  1  1  1  1
TYPE ASSIGNMENTS      1  1  1  1  1  1  1  1  1  1  1  1  1  1  1  1  1  1  1  1
TYPE ASSIGNMENTS      1  1  1  1  1  1  1  1  1  1  1  1  1  1
EXPONENTS  0.1307093D+03 0.2380887D+02 0.6443608D+01 0.5033151D+01 0.1169596D+01
EXPONENTS  0.3803890D+00 0.5033151D+01 0.1169596D+01 0.3803890D+00 0.5033151D+01
EXPONENTS  0.1169596D+01 0.3803890D+00 0.5033151D+01 0.1169596D+01 0.3803890D+00
EXPONENTS  0.1307093D+03 0.2380887D+02 0.6443608D+01 0.5033151D+01 0.1169596D+01
EXPONENTS  0.3803890D+00 0.5033151D+01 0.1169596D+01 0.3803890D+00 0.5033151D+01
EXPONENTS  0.1169596D+01 0.3803890D+00 0.5033151D+01 0.1169596D+01 0.3803890D+00
EXPONENTS  0.9910617D+02 0.1805231D+02 0.4885660D+01 0.3780456D+01 0.8784966D+00
EXPONENTS  0.2857144D+00 0.3780456D+01 0.8784966D+00 0.2857144D+00 0.3780456D+01
EXPONENTS  0.8784966D+00 0.2857144D+00 0.3780456D+01 0.8784966D+00 0.2857144D+00
EXPONENTS  0.7161684D+02 0.1304510D+02 0.3530512D+01 0.2941249D+01 0.6834831D+00
EXPONENTS  0.2222899D+00 0.2941249D+01 0.6834831D+00 0.2222899D+00 0.2941249D+01
EXPONENTS  0.6834831D+00 0.2222899D+00 0.2941249D+01 0.6834831D+00 0.2222899D+00
EXPONENTS  0.7161684D+02 0.1304510D+02 0.3530512D+01 0.2941249D+01 0.6834831D+00
EXPONENTS  0.2222899D+00 0.2941249D+01 0.6834831D+00 0.2222899D+00 0.2941249D+01
EXPONENTS  0.6834831D+00 0.2222899D+00 0.2941249D+01 0.6834831D+00 0.2222899D+00
EXPONENTS  0.7161684D+02 0.1304510D+02 0.3530512D+01 0.2941249D+01 0.6834831D+00
EXPONENTS  0.2222899D+00 0.2941249D+01 0.6834831D+00 0.2222899D+00 0.2941249D+01
EXPONENTS  0.6834831D+00 0.2222899D+00 0.2941249D+01 0.6834831D+00 0.2222899D+00
EXPONENTS  0.7161684D+02 0.1304510D+02 0.3530512D+01 0.2941249D+01 0.6834831D+00
EXPONENTS  0.2222899D+00 0.2941249D+01 0.6834831D+00 0.2222899D+00 0.2941249D+01
EXPONENTS  0.6834831D+00 0.2222899D+00 0.2941249D+01 0.6834831D+00 0.2222899D+00
EXPONENTS  0.7161684D+02 0.1304510D+02 0.3530512D+01 0.2941249D+01 0.6834831D+00
EXPONENTS  0.2222899D+00 0.2941249D+01 0.6834831D+00 0.2222899D+00 0.2941249D+01
EXPONENTS  0.6834831D+00 0.2222899D+00 0.2941249D+01 0.6834831D+00 0.2222899D+00
EXPONENTS  0.7161684D+02 0.1304510D+02 0.3530512D+01 0.2941249D+01 0.6834831D+00
EXPONENTS  0.2222899D+00 0.2941249D+01 0.6834831D+00 0.2222899D+00 0.2941249D+01
EXPONENTS  0.6834831D+00 0.2222899D+00 0.2941249D+01 0.6834831D+00 0.2222899D+00
EXPONENTS  0.3425251D+01 0.6239137D+00 0.1688554D+00 0.3425251D+01 0.6239137D+00
EXPONENTS  0.1688554D+00 0.3425251D+01 0.6239137D+00 0.1688554D+00 0.3425251D+01
EXPONENTS  0.6239137D+00 0.1688554D+00 0.3425251D+01 0.6239137D+00 0.1688554D+00
EXPONENTS  0.3425251D+01 0.6239137D+00 0.1688554D+00 0.3425251D+01 0.6239137D+00
EXPONENTS  0.1688554D+00 0.3425251D+01 0.6239137D+00 0.1688554D+00 0.3425251D+01
EXPONENTS  0.6239137D+00 0.1688554D+00 0.3425251D+01 0.6239137D+00 0.1688554D+00
EXPONENTS  0.3425251D+01 0.6239137D+00 0.1688554D+00 0.3425251D+01 0.6239137D+00
EXPONENTS  0.1688554D+00 0.3425251D+01 0.6239137D+00 0.1688554D+00
MO    1     MO 0.0        OCC NO =    2.0000000  ORB. ENERGY =  -19.427328
  0.42264930D+01  0.40876801D+01  0.12739513D+01 -0.63808404D-02  0.85348895D-02
  0.64414084D-02  0.40773434D-02  0.25639429D-02  0.40617164D-03 -0.25657169D-03
 -0.16133917D-03 -0.25558835D-04 -0.56309201D-02 -0.35408737D-02 -0.56093388D-03
  0.38234542D-02  0.36978785D-02  0.11524672D-02 -0.55137788D-04  0.73751246D-04
  0.55661166D-04  0.89631290D-04  0.56362560D-04  0.89287765D-05 -0.92254817D-03
 -0.58012305D-03 -0.91901237D-04  0.49106183D-03  0.30879286D-03  0.48917977D-04
 -0.22429478D-05 -0.21692814D-05 -0.67607027D-06 -0.17444923D-05  0.23333993D-05
  0.17610513D-05 -0.92877590D-05 -0.58403921D-05 -0.92521623D-06  0.28319416D-04
  0.17808009D-04  0.28210877D-05  0.34418184D-05  0.21643078D-05  0.34286272D-06
 -0.11384223D-05 -0.11010325D-05 -0.34314374D-06  0.15452190D-05 -0.20668552D-05
 -0.15598865D-05  0.22675258D-05  0.14258811D-05  0.22588352D-06  0.73374198D-06
  0.46139665D-06  0.73092981D-07 -0.18180417D-05 -0.11432334D-05 -0.18110738D-06
 -0.11618619D-04 -0.11237023D-04 -0.35020891D-05 -0.37414649D-05  0.50045116D-05
  0.37769796D-05  0.57543878D-05  0.36185134D-05  0.57323332D-06 -0.10953519D-04
 -0.68878665D-05 -0.10911538D-05  0.53459355D-05  0.33616677D-05  0.53254464D-06
 -0.78376124D-04 -0.75801975D-04 -0.23624165D-04 -0.58345911D-04  0.78042370D-04
  0.58899741D-04 -0.33766151D-04 -0.21233062D-04 -0.33636737D-05 -0.22737408D-03
 -0.14297892D-03 -0.22650263D-04  0.24630155D-03  0.15488102D-03  0.24535756D-04
 -0.28483357D-05 -0.27547863D-05 -0.85854657D-06 -0.74903339D-06  0.10018927D-05
  0.75614335D-06  0.77499020D-05  0.48733463D-05  0.77201993D-06 -0.31030773D-05
 -0.19512983D-05 -0.30911843D-06 -0.11832377D-06 -0.74405163D-07 -0.11787028D-07
 -0.11140604D-03 -0.10774707D-03 -0.33580056D-04 -0.58068837D-04  0.77671761D-04
  0.58620036D-04  0.16580870D-03  0.10426496D-03  0.16517322D-04 -0.64083721D-04
 -0.40297564D-04 -0.63838111D-05  0.18769712D-03  0.11802899D-03  0.18697775D-04
  0.14492983D-02  0.14016983D-02  0.43684812D-03  0.72215556D-03 -0.96594141D-03
 -0.72901039D-03  0.84163406D-03  0.52924208D-03  0.83840837D-04  0.26516266D-02
  0.16674140D-02  0.26414639D-03 -0.29474634D-02 -0.18534441D-02 -0.29361668D-03
  0.22177956D-05  0.21449553D-05  0.66848888D-06 -0.78100322D-05 -0.75535231D-05
 -0.23541032D-05  0.26960720D-05  0.26075234D-05  0.81265116D-06 -0.75945870D-04
 -0.73451539D-04 -0.22891636D-04  0.23560847D-05  0.22787025D-05  0.71017204D-06
  0.53658881D-06  0.51896533D-06  0.16173883D-06  0.58642548D-06  0.56716520D-06
  0.17676062D-06  0.37903845D-05  0.36658948D-05  0.11424993D-05 -0.20226533D-03
 -0.19562222D-03 -0.60966902D-04 -0.21983169D-06 -0.21261164D-06 -0.66261762D-07
  0.14739689D-05  0.14255586D-05  0.44428434D-06 -0.15465959D-04 -0.14958003D-04
 -0.46617561D-05 -0.16115508D-02 -0.15586217D-02 -0.48575432D-03
MO    2     MO 0.0        OCC NO =    2.0000000  ORB. ENERGY =  -19.374644
 -0.41498778D-02 -0.40135811D-02 -0.12508579D-02 -0.62625732D-04  0.83766976D-04
  0.63220187D-04  0.57644111D-03  0.36248164D-03  0.57423181D-04 -0.39525182D-03
 -0.24854495D-03 -0.39373696D-04 -0.53968328D-03 -0.33936733D-03 -0.53761486D-04
  0.42267534D+01  0.40879318D+01  0.12740298D+01 -0.64199676D-02  0.85872254D-02
  0.64809071D-02 -0.60564925D-02 -0.38084850D-02 -0.60332802D-03  0.17154624D-02
  0.10787288D-02  0.17088877D-03  0.73324691D-02  0.46108533D-02  0.73043663D-03
 -0.48813057D-04 -0.47209864D-04 -0.14713252D-04 -0.17549027D-04  0.23473241D-04
  0.17715605D-04  0.12103359D-03  0.76109170D-04  0.12056971D-04 -0.81240613D-04
 -0.51086277D-04 -0.80929246D-05 -0.71184231D-04 -0.44762555D-04 -0.70911408D-05
  0.64802904D-05  0.62674547D-05  0.19532919D-05  0.37367015D-05 -0.49981402D-05
 -0.37721710D-05 -0.13925896D-04 -0.87569773D-05 -0.13872523D-05 -0.67127956D-07
 -0.42211860D-07 -0.66870679D-08  0.28365610D-05  0.17837057D-05  0.28256894D-06
 -0.33567330D-04 -0.32464860D-04 -0.10117879D-04 -0.76148692D-05  0.10185503D-04
  0.76871509D-05  0.13983472D-04  0.87931826D-05  0.13929879D-05 -0.70351417D-04
 -0.44238859D-04 -0.70081785D-05 -0.25433970D-04 -0.15993563D-04 -0.25336491D-05
 -0.41855439D-04 -0.40480759D-04 -0.12616084D-04 -0.17981995D-04  0.24052371D-04
  0.18152683D-04  0.20279676D-03  0.12752405D-03  0.20201951D-04  0.78377906D-04
  0.49286131D-04  0.78077512D-05 -0.32144495D-03 -0.20213321D-03 -0.32021297D-04
 -0.17438917D-05 -0.16866161D-05 -0.52564458D-06 -0.72294099D-06  0.96699197D-06
  0.72980327D-06  0.38093883D-05  0.23954456D-05  0.37947882D-06  0.12153643D-05
  0.76425371D-06  0.12107063D-06  0.89402487D-06  0.56218683D-06  0.89059839D-07
 -0.91827793D-05 -0.88811844D-05 -0.27678772D-05 -0.89167514D-06  0.11926875D-05
  0.90013907D-06  0.31349695D-04  0.19713529D-04  0.31229543D-05  0.13436680D-04
  0.84493447D-05  0.13385182D-05 -0.12019365D-04 -0.75580995D-05 -0.11973299D-05
  0.16462552D-02  0.15921864D-02  0.49621495D-03  0.11936373D-02 -0.15965864D-02
 -0.12049676D-02 -0.36914748D-02 -0.23212984D-02 -0.36773267D-03  0.10951071D-02
  0.68863272D-03  0.10909099D-03  0.44454130D-02  0.27953950D-02  0.44283753D-03
  0.33069456D-06  0.31983338D-06  0.99678095D-07 -0.13939839D-04 -0.13482006D-04
 -0.42017523D-05  0.53960973D-05  0.52188704D-05  0.16264940D-05  0.39520857D-05
  0.38222853D-05  0.11912394D-05 -0.15083547D-05 -0.14588150D-05 -0.45464892D-06
  0.55175843D-07  0.53363674D-07  0.16631126D-07  0.25114996D-06  0.24290131D-06
  0.75701729D-07  0.15599323D-05  0.15086986D-05  0.47019546D-06  0.86737105D-05
  0.83888352D-05  0.26144335D-05  0.34687212D-05  0.33547961D-05  0.10455434D-05
  0.73032068D-05  0.70633436D-05  0.22013357D-05 -0.54923006D-04 -0.53119140D-04
 -0.16554916D-04 -0.36937876D-04 -0.35724705D-04 -0.11133830D-04
MO    3     MO 0.0        OCC NO =    2.0000000  ORB. ENERGY =  -14.544940
 -0.23306678D-05 -0.22541204D-05 -0.70251087D-06  0.35977597D-06 -0.48122943D-06
 -0.36319103D-06  0.57989794D-04  0.36465539D-04  0.57767540D-05 -0.10844038D-05
 -0.68190218D-06 -0.10802476D-06 -0.86063251D-05 -0.54118882D-05 -0.85733401D-06
 -0.10323188D-03 -0.99841380D-04 -0.31116197D-04 -0.24857908D-04  0.33249461D-04
  0.25093864D-04 -0.12562568D-04 -0.78996802D-05 -0.12514421D-05  0.15753464D-03
  0.99062011D-04  0.15693087D-04 -0.11853557D-04 -0.74538350D-05 -0.11808127D-05
  0.34310735D+01  0.33183849D+01  0.10341956D+01 -0.62813628D-02  0.84018302D-02
  0.63409866D-02 -0.40756638D-02 -0.25628867D-02 -0.40600432D-03  0.55222095D-03
  0.34725135D-03  0.55010449D-04 -0.47285812D-02 -0.29734588D-02 -0.47104583D-03
  0.13001899D-04  0.12574870D-04  0.39190378D-05  0.10196435D-05 -0.13638556D-05
 -0.10293222D-05 -0.34734527D-04 -0.21842003D-04 -0.34601402D-05  0.18558371D-04
  0.11670002D-04  0.18487244D-05 -0.50506423D-04 -0.31759794D-04 -0.50312850D-05
 -0.15596741D-04 -0.15084489D-04 -0.47011764D-05 -0.29781947D-04  0.39835761D-04
  0.30064643D-04  0.23704881D-03  0.14906265D-03  0.23614028D-04  0.11910775D-03
  0.74898151D-04  0.11865126D-04  0.10107749D-03  0.63560241D-04  0.10069010D-04
  0.14590406D-02  0.14111206D-02  0.43978464D-03  0.85423013D-03 -0.11426018D-02
 -0.86233863D-03 -0.27628424D-02 -0.17373495D-02 -0.27522535D-03 -0.29597428D-02
 -0.18611657D-02 -0.29483991D-03  0.19254216D-03  0.12107568D-03  0.19180421D-04
 -0.66509219D-07 -0.64324821D-07 -0.20047237D-07 -0.20807960D-05  0.27832327D-05
  0.21005473D-05 -0.48893563D-05 -0.30745584D-05 -0.48706171D-06 -0.10416068D-04
 -0.65499034D-05 -0.10376147D-05  0.57650213D-05  0.36252001D-05  0.57429260D-06
  0.67316968D-06  0.65106041D-06  0.20290709D-06 -0.30003691D-05  0.40132361D-05
  0.30288491D-05 -0.13963669D-04 -0.87807295D-05 -0.13910151D-05 -0.16754979D-04
 -0.10535981D-04 -0.16690763D-05  0.67853163D-05  0.42667890D-05  0.67593106D-06
  0.18262276D-04  0.17662478D-04  0.55046229D-05 -0.36412163D-04  0.48704210D-04
  0.36757794D-04 -0.56408604D-04 -0.35471244D-04 -0.56192410D-05  0.17438776D-03
  0.10965970D-03  0.17371939D-04 -0.30426167D-04 -0.19132790D-04 -0.30309554D-05
 -0.73227185D-05 -0.70822145D-05 -0.22072169D-05  0.38599211D-04  0.37331477D-04
  0.11634591D-04  0.58007538D-04  0.56102366D-04  0.17484657D-04  0.76296155D-04
  0.73790320D-04  0.22997220D-04 -0.10816821D-04 -0.10461558D-04 -0.32604107D-05
  0.13483445D-05  0.13040601D-05  0.40641857D-06 -0.12374101D-05 -0.11967692D-05
 -0.37298067D-06 -0.10207176D-05 -0.98719364D-06 -0.30766514D-06 -0.14672374D-04
 -0.14190481D-04 -0.44225531D-05 -0.28052642D-05 -0.27131294D-05 -0.84556394D-06
 -0.19695613D-02 -0.19048739D-02 -0.59366600D-03 -0.19631510D-02 -0.18986742D-02
 -0.59173382D-03  0.11444380D-05  0.11068506D-05  0.34495699D-06
MO    4     MO 0.0        OCC NO =    2.0000000  ORB. ENERGY =  -10.483411
  0.21420115D-02  0.20716602D-02  0.64564601D-03  0.11612694D-02 -0.15532917D-02
 -0.11722924D-02 -0.82154540D-03 -0.51660980D-03 -0.81839671D-04 -0.41386473D-02
 -0.26024925D-02 -0.41227854D-03  0.37435049D-02  0.23540163D-02  0.37291573D-03
  0.16689846D-02  0.16141692D-02  0.50306604D-03  0.16219136D-02 -0.21694405D-02
 -0.16373091D-02  0.27366724D-02  0.17208930D-02  0.27261837D-03 -0.70079157D-03
 -0.44067654D-03 -0.69810568D-04 -0.33499672D-02 -0.21065493D-02 -0.33371280D-03
  0.73434322D-04  0.71022479D-04  0.22134604D-04 -0.55095629D-04  0.73694855D-04
  0.55618607D-04 -0.30849986D-03 -0.19399299D-03 -0.30731749D-04  0.27927660D-03
  0.17561662D-03  0.27820623D-04 -0.12766443D-03 -0.80278821D-04 -0.12717514D-04
  0.12974630D-03  0.12548497D-03  0.39108185D-04 -0.15452903D-04  0.20669506D-04
  0.15599585D-04  0.33267102D-04  0.20919246D-04  0.33139601D-05 -0.74723000D-05
 -0.46987828D-05 -0.74436613D-06 -0.16045210D-04 -0.10089659D-04 -0.15983715D-05
 -0.92622530D-03 -0.89580479D-03 -0.27918322D-03 -0.26173725D-04  0.35009471D-04
  0.26422170D-04 -0.94139118D-05 -0.59197204D-05 -0.93778316D-06  0.24000273D-03
  0.15092016D-03  0.23908289D-04 -0.33091108D-04 -0.20808577D-04 -0.32964282D-05
 -0.14998813D-01 -0.14506199D-01 -0.45209485D-02  0.98112756D-03 -0.13123374D-02
 -0.99044059D-03 -0.20931432D-02 -0.13162246D-02 -0.20851210D-03  0.33508990D-02
  0.21071352D-02  0.33380562D-03  0.69258597D-03  0.43551664D-03  0.68993153D-04
  0.29503091D-04  0.28534105D-04  0.88928341D-05 -0.67700148D-07  0.90554417D-07
  0.68342769D-07  0.10031816D-04  0.63082752D-05  0.99933678D-06 -0.81126482D-05
 -0.51014509D-05 -0.80815553D-06 -0.54337873D-06 -0.34169113D-06 -0.54129615D-07
 -0.18495223D-03 -0.17887775D-03 -0.55748381D-04 -0.42305361D-04  0.56586838D-04
  0.42706931D-04 -0.16307945D-03 -0.10254874D-03 -0.16245443D-04 -0.22140171D-03
 -0.13922334D-03 -0.22055316D-04  0.10972733D-03  0.68999490D-04  0.10930678D-04
  0.26861738D+01  0.25979504D+01  0.80966766D+00 -0.55257003D-02  0.73910705D-02
  0.55781512D-02  0.38728299D-03  0.24353394D-03  0.38579867D-04 -0.17542043D-03
 -0.11030908D-03 -0.17474811D-04 -0.47232211D-03 -0.29700882D-03 -0.47051187D-04
 -0.75352257D-06 -0.72877422D-06 -0.22712709D-06 -0.90985876D-04 -0.87997579D-04
 -0.27425002D-04 -0.45277514D-04 -0.43790441D-04 -0.13647568D-04 -0.19475448D-05
 -0.18835805D-05 -0.58702978D-06  0.48700428D-05  0.47100934D-05  0.14679304D-05
 -0.30881222D-07 -0.29866973D-07 -0.93082311D-08  0.73346317D-06  0.70937365D-06
  0.22108078D-06 -0.55032313D-04 -0.53224858D-04 -0.16587863D-04 -0.23359304D-03
 -0.22592102D-03 -0.70409713D-04 -0.33406367D-04 -0.32309183D-04 -0.10069361D-04
 -0.50246859D-04 -0.48596574D-04 -0.15145430D-04 -0.11215305D-03 -0.10846954D-03
 -0.33805219D-04 -0.43404477D-03 -0.41978920D-03 -0.13082996D-03
MO    5     MO 0.0        OCC NO =    2.0000000  ORB. ENERGY =  -10.422960
 -0.85862733D-04 -0.83042697D-04 -0.25880781D-04 -0.72541062D-04  0.97029531D-04
  0.73229634D-04 -0.17378796D-04 -0.10928253D-04 -0.17312189D-05  0.21278546D-03
  0.13380521D-03  0.21196993D-04 -0.77435496D-04 -0.48693518D-04 -0.77138713D-05
 -0.64871579D-04 -0.62740967D-04 -0.19553619D-04 -0.26126682D-04  0.34946548D-04
  0.26374681D-04 -0.14130345D-03 -0.88855401D-04 -0.14076188D-04  0.45041380D-03
  0.28323229D-03  0.44868753D-04 -0.67976739D-04 -0.42745597D-04 -0.67716208D-05
  0.22451868D-02  0.21714469D-02  0.67674516D-03  0.10584424D-02 -0.14157522D-02
 -0.10684893D-02  0.35395746D-02  0.22257795D-02  0.35260086D-03  0.38141381D-02
  0.23984324D-02  0.37995199D-03 -0.35234830D-03 -0.22156607D-03 -0.35099788D-04
 -0.13766228D-02 -0.13314096D-02 -0.41494222D-03 -0.26591020D-04  0.35567637D-04
  0.26843426D-04  0.51161573D-04  0.32171770D-04  0.50965489D-05  0.56762051D-04
  0.35693501D-04  0.56544502D-05 -0.21764811D-04 -0.13686297D-04 -0.21681394D-05
 -0.27288375D-01 -0.26392129D-01 -0.82252737D-02  0.10722574D-02 -0.14342309D-02
 -0.10824354D-02 -0.31248907D-02 -0.19650151D-02 -0.31129141D-03  0.45935187D-03
  0.28885278D-03  0.45759133D-04 -0.28655501D-02 -0.18019348D-02 -0.28545675D-03
  0.26841464D+01  0.25959896D+01  0.80905655D+00 -0.63339950D-02  0.84722300D-02
  0.63941183D-02  0.90078774D-04  0.56643950D-04  0.89733534D-05 -0.33975123D-03
 -0.21364469D-03 -0.33844908D-04  0.34675938D-03  0.21805160D-03  0.34543037D-04
 -0.97097102D-04 -0.93908090D-04 -0.29267050D-04  0.65043538D-05 -0.87000987D-05
 -0.65660942D-05  0.29143331D-05  0.18326109D-05  0.29031635D-06  0.48342903D-04
  0.30399314D-04  0.48157621D-05 -0.48244924D-04 -0.30337703D-04 -0.48060018D-05
  0.39139219D-04  0.37853749D-04  0.11797360D-04 -0.85741523D-05  0.11468621D-04
  0.86555396D-05 -0.18387312D-05 -0.11562435D-05 -0.18316840D-06 -0.28570418D-04
 -0.17965845D-04 -0.28460917D-05 -0.53575760D-05 -0.33689876D-05 -0.53370424D-06
  0.18517989D-01  0.17909793D-01  0.55817001D-02  0.10104933D-02 -0.13516164D-02
 -0.10200851D-02  0.21967123D-02  0.13813517D-02  0.21882931D-03 -0.37534944D-02
 -0.23602980D-02 -0.37391086D-03 -0.69518386D-03 -0.43715026D-03 -0.69251946D-04
 -0.30835793D-04 -0.29823036D-04 -0.92945378D-05  0.35874742D-04  0.34696488D-04
  0.10813380D-04  0.36558656D-04  0.35357940D-04  0.11019526D-04 -0.22781266D-02
 -0.22033049D-02 -0.68667390D-03  0.68182039D-04  0.65942700D-04  0.20551459D-04
  0.50570892D-05  0.48909965D-05  0.15243100D-05  0.22887861D-05  0.22136143D-05
  0.68988688D-06  0.34049373D-05  0.32931071D-05  0.10263176D-05 -0.30897101D-04
 -0.29882331D-04 -0.93130172D-05 -0.35408987D-05 -0.34246031D-05 -0.10672992D-05
 -0.12776323D-03 -0.12356704D-03 -0.38510448D-04 -0.14338284D-03 -0.13867364D-03
 -0.43218518D-04 -0.34382186D-04 -0.33252954D-04 -0.10363493D-04
MO    6     MO 0.0        OCC NO =    2.0000000  ORB. ENERGY =  -10.392799
 -0.26693720D-05 -0.25817004D-05 -0.80460325D-06 -0.74817556D-06  0.10007452D-05
  0.75527737D-06  0.42388016D-05  0.26654722D-05  0.42225558D-06  0.58896105D-05
  0.37035451D-05  0.58670377D-06  0.39558650D-06  0.24875541D-06  0.39407036D-07
  0.16100050D-04  0.15571268D-04  0.48528840D-05  0.65658578D-05 -0.87823652D-05
 -0.66281820D-05  0.24097076D-04  0.15152888D-04  0.24004720D-05 -0.14356601D-04
 -0.90278161D-05 -0.14301577D-05 -0.15177400D-04 -0.95439566D-05 -0.15119231D-05
  0.29911559D-04  0.28929158D-04  0.90159548D-05  0.11266030D-04 -0.15069225D-04
 -0.11372969D-04  0.70657892D-04  0.44431579D-04  0.70387086D-05  0.33392567D-04
  0.20998142D-04  0.33264585D-05  0.34080472D-04  0.21430715D-04  0.33949853D-05
  0.26744468D+01  0.25866085D+01  0.80613288D+00 -0.65611689D-02  0.87760934D-02
  0.66234486D-02 -0.86982510D-04 -0.54696936D-04 -0.86649137D-05  0.28011137D-03
  0.17614155D-03  0.27903780D-04 -0.33343318D-03 -0.20967173D-03 -0.33215525D-04
 -0.21502812D+00 -0.20796584D+00 -0.64813868D-01  0.15515166D-02 -0.20752788D-02
 -0.15662438D-02  0.34946454D-02  0.21975268D-02  0.34812516D-03  0.23915726D-02
  0.15038851D-02  0.23824066D-03 -0.55883581D-03 -0.35141095D-03 -0.55669399D-04
 -0.10325472D-02 -0.99863472D-03 -0.31123082D-03 -0.99776502D-04  0.13345913D-03
  0.10072360D-03 -0.27932055D-03 -0.17564425D-03 -0.27825001D-04  0.90248513D-04
  0.56750687D-04  0.89902623D-05 -0.22151569D-03 -0.13929501D-03 -0.22066670D-04
 -0.46541061D-01 -0.45012488D-01 -0.14028426D-01  0.11586350D-02 -0.15497679D-02
 -0.11696330D-02 -0.19653620D-02 -0.12358724D-02 -0.19578295D-03  0.90622179D-03
  0.56985658D-03  0.90274857D-04  0.37392072D-02  0.23513139D-02  0.37248762D-03
 -0.35203123D-01 -0.34046928D-01 -0.10610940D-01  0.11297637D-02 -0.15111502D-02
 -0.11404876D-02  0.86660932D-03  0.54494719D-03  0.86328791D-04 -0.42292833D-02
 -0.26594868D-02 -0.42130740D-03 -0.23376368D-03 -0.14699687D-03 -0.23286775D-04
 -0.27585134D-03 -0.26679141D-03 -0.83147229D-04 -0.72619112D-05  0.97133929D-05
  0.73308425D-05 -0.96466530D-05 -0.60660743D-05 -0.96096808D-06  0.82464420D-05
  0.51855840D-05  0.82148363D-06 -0.34631864D-04 -0.21777445D-04 -0.34499132D-05
 -0.22769492D-02 -0.22021662D-02 -0.68631901D-03  0.21241524D-03  0.20543877D-03
  0.64026293D-04  0.21177938D-03  0.20482380D-03  0.63834631D-04 -0.35947930D-04
 -0.34767272D-04 -0.10835440D-04  0.56701484D-04  0.54839207D-04  0.17090985D-04
  0.71802283D-04  0.69444042D-04  0.21642675D-04  0.73015804D-04  0.70617707D-04
  0.22008455D-04  0.61071569D-04  0.59065763D-04  0.18408218D-04  0.42541042D-04
  0.41143844D-04  0.12822739D-04  0.61829410D-04  0.59798713D-04  0.18636647D-04
 -0.64326284D-05 -0.62213581D-05 -0.19389256D-05 -0.89538830D-05 -0.86598058D-05
 -0.26988832D-05 -0.65662573D-06 -0.63505982D-06 -0.19792041D-06
MO    7     MO 0.0        OCC NO =    2.0000000  ORB. ENERGY =  -10.388250
 -0.25814581D-04 -0.24966738D-04 -0.77810419D-05 -0.61749245D-05  0.82594603D-05
  0.62335379D-05 -0.44089544D-04 -0.27724688D-04 -0.43920564D-05  0.24952227D-04
  0.15690630D-04  0.24856594D-05 -0.54016365D-04 -0.33966940D-04 -0.53809339D-05
 -0.73120956D-04 -0.70719405D-04 -0.22040150D-04 -0.21698518D-04  0.29023521D-04
  0.21904485D-04 -0.10829203D-03 -0.68096937D-04 -0.10787699D-04  0.71400320D-04
  0.44898437D-04  0.71126668D-05 -0.32860582D-05 -0.20663616D-05 -0.32734639D-06
  0.17245372D-04  0.16678973D-04  0.51981074D-05 -0.32160124D-04  0.43016764D-04
  0.32465393D-04 -0.91905781D-04 -0.57792821D-04 -0.91553539D-05 -0.16917621D-04
 -0.10638254D-04 -0.16852782D-05 -0.60344556D-04 -0.37946276D-04 -0.60113276D-05
  0.21827888D+00  0.21110983D+00  0.65793713D-01  0.47620399D-03 -0.63696131D-03
 -0.48072420D-03 -0.34973231D-02 -0.21992106D-02 -0.34839191D-03 -0.23743062D-02
 -0.14930274D-02 -0.23652063D-03  0.55061309D-03  0.34624029D-03  0.54850279D-04
  0.26753315D+01  0.25874642D+01  0.80639956D+00 -0.64059830D-02  0.85685197D-02
  0.64667897D-02  0.36403651D-03  0.22891592D-03  0.36264128D-04  0.74168532D-03
  0.46639163D-03  0.73884271D-04 -0.54140292D-03 -0.34044869D-03 -0.53932792D-04
  0.30845823D-01  0.29832737D-01  0.92975612D-02  0.93991906D-03 -0.12572177D-02
 -0.94884093D-03  0.30845548D-02  0.19396508D-02  0.30727328D-03 -0.51609211D-03
 -0.32453257D-03 -0.51411411D-04  0.28855277D-02  0.18144972D-02  0.28744685D-03
 -0.10134223D-01 -0.98013791D-02 -0.30546618D-02  0.88877312D-04 -0.11888058D-03
 -0.89720950D-04 -0.24681942D-03 -0.15520668D-03 -0.24587345D-04  0.59047129D-05
  0.37130419D-05  0.58820822D-06  0.25211513D-03  0.15853676D-03  0.25114886D-04
 -0.69628747D-02 -0.67341893D-02 -0.20987527D-02  0.79082976D-04 -0.10577987D-03
 -0.79833645D-04 -0.38773418D-04 -0.24381766D-04 -0.38624813D-05 -0.34900180D-03
 -0.21946170D-03 -0.34766420D-04 -0.14808819D-04 -0.93121827D-05 -0.14752062D-05
  0.13216862D-02  0.12782773D-02  0.39838321D-03  0.54292759D-05 -0.72620951D-05
 -0.54808115D-05  0.43825310D-04  0.27558531D-04  0.43657343D-05  0.38052411D-04
  0.23928377D-04  0.37906569D-05  0.42692101D-04  0.26845939D-04  0.42528477D-05
 -0.15480163D-03 -0.14971740D-03 -0.46660373D-04 -0.22620486D-02 -0.21877549D-02
 -0.68182764D-03 -0.22672574D-02 -0.21927927D-02 -0.68339769D-03 -0.50690731D-05
 -0.49025868D-05 -0.15279222D-05  0.65251476D-05  0.63108387D-05  0.19668128D-05
  0.12990569D-04  0.12563913D-04  0.39156228D-05 -0.26941366D-04 -0.26056517D-04
 -0.81206781D-05  0.77368748D-05  0.74827685D-05  0.23320521D-05 -0.13534512D-05
 -0.13089991D-05 -0.40795783D-06 -0.29318150D-04 -0.28355238D-04 -0.88370891D-05
 -0.24707321D-05 -0.23895846D-05 -0.74472913D-06 -0.20799323D-04 -0.20116199D-04
 -0.62693407D-05  0.10537111D-05  0.10191035D-05  0.31761006D-06
MO    8     MO 0.0        OCC NO =    2.0000000  ORB. ENERGY =  -10.372942
 -0.61424523D-05 -0.59407124D-05 -0.18514606D-05 -0.40476409D-06  0.54140467D-06
  0.40860618D-06 -0.23755890D-04 -0.14938341D-04 -0.23664842D-05  0.88336651D-05
  0.55548457D-05  0.87998088D-06  0.14072818D-04  0.88493657D-05  0.14018882D-05
 -0.33279876D-05 -0.32186847D-05 -0.10031234D-05 -0.17580488D-05  0.23515323D-05
  0.17747365D-05 -0.29371781D-05 -0.18469764D-05 -0.29259209D-06  0.44928022D-05
  0.28251946D-05  0.44755829D-06  0.56261692D-05  0.35378862D-05  0.56046061D-06
  0.34363150D-05  0.33234542D-05  0.10357755D-05  0.13699555D-05 -0.18324262D-05
 -0.13829594D-05 -0.17957207D-05 -0.11291974D-05 -0.17888384D-06  0.39810919D-05
  0.25034174D-05  0.39658338D-06  0.31301109D-05  0.19682977D-05  0.31181143D-06
  0.50459086D-01  0.48801831D-01  0.15209399D-01  0.89838009D-03 -0.12016559D-02
 -0.90690766D-03  0.19565427D-02  0.12303265D-02  0.19490439D-03 -0.95516506D-03
 -0.60063342D-03 -0.95150425D-04 -0.37094559D-02 -0.23326054D-02 -0.36952389D-03
  0.65081853D-02  0.62944334D-02  0.19617000D-02 -0.16860800D-04  0.22552683D-04
  0.17020846D-04  0.43936740D-04  0.27628601D-04  0.43768346D-05 -0.96519937D-05
 -0.60694326D-05 -0.96150010D-06 -0.10807100D-03 -0.67957945D-04 -0.10765680D-04
  0.20206804D-03  0.19543141D-03  0.60907434D-04 -0.20287303D-07  0.27135907D-07
  0.20479874D-07  0.30538533D-04  0.19203449D-04  0.30421490D-05 -0.24408766D-04
 -0.15348887D-04 -0.24315216D-05 -0.25038896D-04 -0.15745130D-04 -0.24942931D-05
  0.26835665D+01  0.25954287D+01  0.80888177D+00 -0.66135725D-02  0.88461875D-02
  0.66763497D-02 -0.25387165D-03 -0.15964130D-03 -0.25289865D-04  0.62396289D-04
  0.39236461D-04  0.62157146D-05  0.41687976D-03  0.26214518D-03  0.41528201D-04
 -0.17597275D-01 -0.17019318D-01 -0.53041781D-02  0.42983962D-04 -0.57494521D-04
 -0.43391973D-04  0.64138187D-04  0.40331813D-04  0.63892368D-05 -0.32374587D-04
 -0.20358009D-04 -0.32250507D-05 -0.12633183D-03 -0.79440845D-04 -0.12584765D-04
 -0.37031977D-04 -0.35815715D-04 -0.11162194D-04  0.10016373D-05 -0.13397708D-05
 -0.10111450D-05 -0.13943865D-04 -0.87682762D-05 -0.13890423D-05 -0.11368496D-04
 -0.71488156D-05 -0.11324925D-05  0.88033876D-05  0.55358064D-05  0.87696474D-06
 -0.13251751D-04 -0.12816517D-04 -0.39943485D-05 -0.42580137D-04 -0.41181654D-04
 -0.12834523D-04  0.52680156D-05  0.50949953D-05  0.15878875D-05  0.21513271D-04
  0.20806699D-04  0.64845393D-05 -0.22659558D-02 -0.21915338D-02 -0.68300536D-03
 -0.22621867D-02 -0.21878885D-02 -0.68186928D-03 -0.22654857D-02 -0.21910792D-02
 -0.68286367D-03 -0.24438608D-04 -0.23635958D-04 -0.73662957D-05  0.23737147D-04
  0.22957535D-04  0.71548609D-05  0.20903277D-04  0.20216740D-04  0.63006747D-05
  0.17243847D-05  0.16677498D-05  0.51976476D-06  0.34593282D-06  0.33457116D-06
  0.10427122D-06  0.10680278D-05  0.10329500D-05  0.32192539D-06
MO    9     MO 0.0        OCC NO =    2.0000000  ORB. ENERGY =  -10.366870
 -0.21366606D-03 -0.20664851D-03 -0.64403316D-04 -0.64438435D-04  0.86191613D-04
  0.65050096D-04 -0.51337749D-03 -0.32282554D-03 -0.51140989D-04 -0.58351541D-04
 -0.36693015D-04 -0.58127901D-05 -0.13988055D-03 -0.87960644D-04 -0.13934444D-04
 -0.23483460D-04 -0.22712180D-04 -0.70783944D-05 -0.57082470D-05  0.76352415D-05
  0.57624307D-05 -0.58894823D-04 -0.37034645D-04 -0.58669100D-05 -0.69550034D-05
 -0.43734928D-05 -0.69283473D-06 -0.18465528D-04 -0.11611619D-04 -0.18394756D-05
  0.67249362D-05  0.65040655D-05  0.20270331D-05  0.21112266D-05 -0.28239362D-05
 -0.21312668D-05  0.72964213D-05  0.45881855D-05  0.72684567D-06  0.39001714D-05
  0.24525324D-05  0.38852234D-06 -0.33064761D-05 -0.20792009D-05 -0.32938036D-06