 opt lysine b3lyp
GAUSSIAN             40 MOL ORBITALS    192 PRIMITIVES       24 NUCLEI
  O    1    (CENTRE  1)   5.78806160 -2.93530784  0.96489165  CHARGE =  8.0
  O    2    (CENTRE  2)   6.78113660  0.41813264 -1.78523264  CHARGE =  8.0
  N    3    (CENTRE  3)   2.77798356  3.52448382  0.28099123  CHARGE =  7.0
  N    4    (CENTRE  4)  -9.17555404 -0.87996042 -0.68084438  CHARGE =  7.0
  C    5    (CENTRE  5)  -2.03533556  0.43261632  0.80793483  CHARGE =  6.0
  C    6    (CENTRE  6)   0.47578292 -0.62350179 -0.31158277  CHARGE =  6.0
  C    7    (CENTRE  7)  -4.40993993 -0.69791475 -0.52343389  CHARGE =  6.0
  C    8    (CENTRE  8)   2.83991145  0.71360597  0.88246814  CHARGE =  6.0
  C    9    (CENTRE  9)  -6.91903909  0.37466672  0.59373428  CHARGE =  6.0
  C   10    (CENTRE 10)   5.34758182 -0.53509678 -0.15912778  CHARGE =  6.0
  H   11    (CENTRE 11)  -2.01722084  2.50848678  0.60368954  CHARGE =  1.0
  H   12    (CENTRE 12)  -2.11150851  0.00291900  2.84787767  CHARGE =  1.0
  H   13    (CENTRE 13)   0.50370589 -0.32280563 -2.37646229  CHARGE =  1.0
  H   14    (CENTRE 14)   0.61678116 -2.67654681  0.03480261  CHARGE =  1.0
  H   15    (CENTRE 15)  -4.42056927 -2.77340236 -0.32223349  CHARGE =  1.0
  H   16    (CENTRE 16)  -4.33109880 -0.26828275 -2.56426012  CHARGE =  1.0
  H   17    (CENTRE 17)   2.78264002  0.47570466  2.96228599  CHARGE =  1.0
  H   18    (CENTRE 18)  -6.91942285  2.46895377  0.40942370  CHARGE =  1.0
  H   19    (CENTRE 19)  -7.02573002 -0.07492810  2.63290519  CHARGE =  1.0
  H   20    (CENTRE 20)   3.56301226  3.61575449 -1.57040156  CHARGE =  1.0
  H   21    (CENTRE 21)   4.27615000  4.29563741  1.37563667  CHARGE =  1.0
  H   22    (CENTRE 22)  -9.13528713 -0.18534368 -2.56546085  CHARGE =  1.0
  H   23    (CENTRE 23) -10.77144233  0.08075650  0.07167543  CHARGE =  1.0
  H   24    (CENTRE 24)   7.42562853 -3.50741966  0.08226456  CHARGE =  1.0
CENTRE ASSIGNMENTS    1  1  1  1  1  1  1  1  1  1  1  1  1  1  1  2  2  2  2  2
CENTRE ASSIGNMENTS    2  2  2  2  2  2  2  2  2  2  3  3  3  3  3  3  3  3  3  3
CENTRE ASSIGNMENTS    3  3  3  3  3  4  4  4  4  4  4  4  4  4  4  4  4  4  4  4
CENTRE ASSIGNMENTS    5  5  5  5  5  5  5  5  5  5  5  5  5  5  5  6  6  6  6  6
CENTRE ASSIGNMENTS    6  6  6  6  6  6  6  6  6  6  7  7  7  7  7  7  7  7  7  7
CENTRE ASSIGNMENTS    7  7  7  7  7  8  8  8  8  8  8  8  8  8  8  8  8  8  8  8
CENTRE ASSIGNMENTS    9  9  9  9  9  9  9  9  9  9  9  9  9  9  9 10 10 10 10 10
CENTRE ASSIGNMENTS   10 10 10 10 10 10 10 10 10 10 11 11 11 12 12 12 13 13 13 14
CENTRE ASSIGNMENTS   14 14 15 15 15 16 16 16 17 17 17 18 18 18 19 19 19 20 20 20
CENTRE ASSIGNMENTS   21 21 21 22 22 22 23 23 23 24 24 24
TYPE ASSIGNMENTS      1  1  1  1  1  1  2  2  2  3  3  3  4  4  4  1  1  1  1  1
TYPE ASSIGNMENTS      1  2  2  2  3  3  3  4  4  4  1  1  1  1  1  1  2  2  2  3
TYPE ASSIGNMENTS      3  3  4  4  4  1  1  1  1  1  1  2  2  2  3  3  3  4  4  4
TYPE ASSIGNMENTS      1  1  1  1  1  1  2  2  2  3  3  3  4  4  4  1  1  1  1  1
TYPE ASSIGNMENTS      1  2  2  2  3  3  3  4  4  4  1  1  1  1  1  1  2  2  2  3
TYPE ASSIGNMENTS      3  3  4  4  4  1  1  1  1  1  1  2  2  2  3  3  3  4  4  4
TYPE ASSIGNMENTS      1  1  1  1  1  1  2  2  2  3  3  3  4  4  4  1  1  1  1  1
TYPE ASSIGNMENTS      1  2  2  2  3  3  3  4  4  4  1  1  1  1  1  1  1  1  1  1
TYPE ASSIGNMENTS      1  1  1  1  1  1  1  1  1  1  1  1  1  1  1  1  1  1  1  1
TYPE ASSIGNMENTS      1  1  1  1  1  1  1  1  1  1  1  1
EXPONENTS  0.1307093D+03 0.2380887D+02 0.6443608D+01 0.5033151D+01 0.1169596D+01
EXPONENTS  0.3803890D+00 0.5033151D+01 0.1169596D+01 0.3803890D+00 0.5033151D+01
EXPONENTS  0.1169596D+01 0.3803890D+00 0.5033151D+01 0.1169596D+01 0.3803890D+00
EXPONENTS  0.1307093D+03 0.2380887D+02 0.6443608D+01 0.5033151D+01 0.1169596D+01
EXPONENTS  0.3803890D+00 0.5033151D+01 0.1169596D+01 0.3803890D+00 0.5033151D+01
EXPONENTS  0.1169596D+01 0.3803890D+00 0.5033151D+01 0.1169596D+01 0.3803890D+00
EXPONENTS  0.9910617D+02 0.1805231D+02 0.4885660D+01 0.3780456D+01 0.8784966D+00
EXPONENTS  0.2857144D+00 0.3780456D+01 0.8784966D+00 0.2857144D+00 0.3780456D+01
EXPONENTS  0.8784966D+00 0.2857144D+00 0.3780456D+01 0.8784966D+00 0.2857144D+00
EXPONENTS  0.9910617D+02 0.1805231D+02 0.4885660D+01 0.3780456D+01 0.8784966D+00
EXPONENTS  0.2857144D+00 0.3780456D+01 0.8784966D+00 0.2857144D+00 0.3780456D+01
EXPONENTS  0.8784966D+00 0.2857144D+00 0.3780456D+01 0.8784966D+00 0.2857144D+00
EXPONENTS  0.7161684D+02 0.1304510D+02 0.3530512D+01 0.2941249D+01 0.6834831D+00
EXPONENTS  0.2222899D+00 0.2941249D+01 0.6834831D+00 0.2222899D+00 0.2941249D+01
EXPONENTS  0.6834831D+00 0.2222899D+00 0.2941249D+01 0.6834831D+00 0.2222899D+00
EXPONENTS  0.7161684D+02 0.1304510D+02 0.3530512D+01 0.2941249D+01 0.6834831D+00
EXPONENTS  0.2222899D+00 0.2941249D+01 0.6834831D+00 0.2222899D+00 0.2941249D+01
EXPONENTS  0.6834831D+00 0.2222899D+00 0.2941249D+01 0.6834831D+00 0.2222899D+00
EXPONENTS  0.7161684D+02 0.1304510D+02 0.3530512D+01 0.2941249D+01 0.6834831D+00
EXPONENTS  0.2222899D+00 0.2941249D+01 0.6834831D+00 0.2222899D+00 0.2941249D+01
EXPONENTS  0.6834831D+00 0.2222899D+00 0.2941249D+01 0.6834831D+00 0.2222899D+00
EXPONENTS  0.7161684D+02 0.1304510D+02 0.3530512D+01 0.2941249D+01 0.6834831D+00
EXPONENTS  0.2222899D+00 0.2941249D+01 0.6834831D+00 0.2222899D+00 0.2941249D+01
EXPONENTS  0.6834831D+00 0.2222899D+00 0.2941249D+01 0.6834831D+00 0.2222899D+00
EXPONENTS  0.7161684D+02 0.1304510D+02 0.3530512D+01 0.2941249D+01 0.6834831D+00
EXPONENTS  0.2222899D+00 0.2941249D+01 0.6834831D+00 0.2222899D+00 0.2941249D+01
EXPONENTS  0.6834831D+00 0.2222899D+00 0.2941249D+01 0.6834831D+00 0.2222899D+00
EXPONENTS  0.7161684D+02 0.1304510D+02 0.3530512D+01 0.2941249D+01 0.6834831D+00
EXPONENTS  0.2222899D+00 0.2941249D+01 0.6834831D+00 0.2222899D+00 0.2941249D+01
EXPONENTS  0.6834831D+00 0.2222899D+00 0.2941249D+01 0.6834831D+00 0.2222899D+00
EXPONENTS  0.3425251D+01 0.6239137D+00 0.1688554D+00 0.3425251D+01 0.6239137D+00
EXPONENTS  0.1688554D+00 0.3425251D+01 0.6239137D+00 0.1688554D+00 0.3425251D+01
EXPONENTS  0.6239137D+00 0.1688554D+00 0.3425251D+01 0.6239137D+00 0.1688554D+00
EXPONENTS  0.3425251D+01 0.6239137D+00 0.1688554D+00 0.3425251D+01 0.6239137D+00
EXPONENTS  0.1688554D+00 0.3425251D+01 0.6239137D+00 0.1688554D+00 0.3425251D+01
EXPONENTS  0.6239137D+00 0.1688554D+00 0.3425251D+01 0.6239137D+00 0.1688554D+00
EXPONENTS  0.3425251D+01 0.6239137D+00 0.1688554D+00 0.3425251D+01 0.6239137D+00
EXPONENTS  0.1688554D+00 0.3425251D+01 0.6239137D+00 0.1688554D+00 0.3425251D+01
EXPONENTS  0.6239137D+00 0.1688554D+00
MO    1     MO 0.0        OCC NO =    2.0000000  ORB. ENERGY =  -18.939038
  0.42244430D+01  0.40856974D+01  0.12733334D+01 -0.68543449D-02  0.91682401D-02
  0.69194075D-02  0.35825884D-02  0.22528277D-02  0.35688576D-03  0.36173346D-02
  0.22746771D-02  0.36034707D-03 -0.48842512D-02 -0.30713482D-02 -0.48655316D-03
  0.38792726D-02  0.37518636D-02  0.11692920D-02 -0.48697301D-04  0.65136574D-04
  0.49159544D-04  0.58560444D-03  0.36824379D-03  0.58336003D-04 -0.95567368D-03
 -0.60095326D-03 -0.95201093D-04  0.14414853D-03  0.90644462D-04  0.14359606D-04
  0.60436866D-05  0.58451906D-05  0.18216906D-05 -0.21603485D-05  0.28896406D-05
  0.21808549D-05 -0.62409886D-04 -0.39245011D-04 -0.62170692D-05  0.34162837D-04
  0.21482509D-04  0.34031903D-05 -0.29635659D-06 -0.18635698D-06 -0.29522076D-07
  0.10808345D-07  0.10453360D-07  0.32578558D-08  0.49767033D-08 -0.66567427D-08
 -0.50239430D-08 -0.26653842D-07 -0.16760651D-07 -0.26551688D-08  0.19764709D-07
  0.12428580D-07  0.19688958D-08 -0.52058417D-08 -0.32735730D-08 -0.51858896D-09
 -0.16509020D-05 -0.15966805D-05 -0.49761557D-06 -0.91375445D-06  0.12222204D-05
  0.92242796D-06  0.61337553D-05  0.38570700D-05  0.61102468D-06 -0.30801476D-06
 -0.19368794D-06 -0.30683424D-07 -0.12577446D-05 -0.79090354D-06 -0.12529241D-06
 -0.39744145D-04 -0.38438807D-04 -0.11979697D-04 -0.15010998D-04  0.20078422D-04
  0.15153485D-04  0.30264354D-04  0.19031038D-04  0.30148361D-05 -0.55259640D-04
 -0.34748745D-04 -0.55047849D-05 -0.21853887D-04 -0.13742311D-04 -0.21770129D-05
  0.68578707D-07  0.66326340D-07  0.20671023D-07  0.75181720D-07 -0.10056162D-06
 -0.75895357D-07  0.76913462D-06  0.48365249D-06  0.76618680D-07  0.63411385D-06
  0.39874781D-06  0.63168352D-07  0.52874669D-06  0.33249011D-06  0.52672019D-07
 -0.66825964D-04 -0.64631163D-04 -0.20142710D-04 -0.51602284D-04  0.69022223D-04
  0.52092101D-04  0.13076951D-03  0.82231376D-04  0.13026832D-04 -0.24061348D-03
 -0.15130421D-03 -0.23969129D-04  0.12329219D-03  0.77529439D-04  0.12281966D-04
 -0.35757290D-07 -0.34582894D-07 -0.10777978D-07 -0.26667195D-07  0.35669527D-07
  0.26920324D-07  0.28844096D-07  0.18137942D-07  0.28733547D-08  0.58187835D-07
  0.36590072D-07  0.57964822D-08 -0.67247357D-07 -0.42286942D-07 -0.66989621D-08
  0.15995913D-02  0.15470551D-02  0.48214949D-03  0.76918433D-03 -0.10288462D-02
 -0.77648556D-03 -0.58785240D-03 -0.36965736D-03 -0.58559937D-04  0.39160405D-02
  0.24625113D-02  0.39010317D-03 -0.19312183D-02 -0.12144019D-02 -0.19238166D-03
  0.75786841D-06  0.73297733D-06  0.22843702D-06  0.10715791D-05  0.10363846D-05
  0.32299581D-06 -0.32088022D-05 -0.31034138D-05 -0.96719853D-06 -0.39769015D-04
 -0.38462860D-04 -0.11987193D-04  0.91071181D-06  0.88080082D-06  0.27450714D-06
  0.67742649D-07  0.65517741D-07  0.20419018D-07 -0.41190549D-04 -0.39837705D-04
 -0.12415673D-04 -0.35920297D-07 -0.34740548D-07 -0.10827111D-07 -0.32245160D-07
 -0.31186114D-07 -0.97193497D-08 -0.24414852D-04 -0.23612982D-04 -0.73591351D-05
 -0.10230425D-05 -0.98944216D-06 -0.30836590D-06 -0.11412950D-08 -0.11038109D-08
 -0.34400963D-09  0.25874133D-09  0.25024335D-09  0.77989923D-10 -0.17554925D-02
 -0.16978360D-02 -0.52914131D-03
MO    2     MO 0.0        OCC NO =    2.0000000  ORB. ENERGY =  -18.876086
 -0.42108361D-02 -0.40725373D-02 -0.12692320D-02 -0.58438070D-04  0.78165640D-04
  0.58992775D-04  0.72070185D-03  0.45319666D-03  0.71793965D-04  0.11420928D-03
  0.71817863D-04  0.11377156D-04 -0.59935615D-03 -0.37689123D-03 -0.59705903D-04
  0.42246678D+01  0.40859148D+01  0.12734012D+01 -0.68956400D-02  0.92234756D-02
  0.69610946D-02 -0.58842971D-02 -0.37002039D-02 -0.58617447D-03 -0.39328869D-02
 -0.24731048D-02 -0.39178135D-03  0.66839510D-02  0.42030477D-02  0.66583338D-03
 -0.48743162D-04 -0.47142264D-04 -0.14692184D-04 -0.21724803D-04  0.29058679D-04
  0.21931019D-04  0.11934253D-03  0.75045786D-04  0.11888513D-04  0.83749610D-04
  0.52664002D-04  0.83428627D-05 -0.17592234D-03 -0.11062469D-03 -0.17524809D-04
 -0.18523610D-08 -0.17915229D-08 -0.55833944D-09 -0.65928183D-09  0.88184271D-09
  0.66553985D-09  0.18408113D-07  0.11575516D-07  0.18337562D-08  0.11457410D-08
  0.72047266D-09  0.11413497D-09  0.13893538D-07  0.87366296D-08  0.13840289D-08
 -0.24360651D-05 -0.23560561D-05 -0.73427977D-06 -0.10898123D-05  0.14577119D-05
  0.11001569D-05  0.65241543D-05  0.41025633D-05  0.64991496D-06 -0.37275650D-05
 -0.23439929D-05 -0.37132786D-06  0.13320538D-05  0.83763120D-06  0.13269486D-06
 -0.15028217D-04 -0.14534637D-04 -0.45298115D-05 -0.39771942D-05  0.53198186D-05
  0.40149464D-05  0.30932418D-04  0.19451134D-04  0.30813865D-05 -0.89441020D-05
 -0.56242914D-05 -0.89098225D-06  0.10147058D-04  0.63807424D-05  0.10108168D-05
 -0.27594229D-06 -0.26687937D-06 -0.83174643D-07 -0.14504394D-06  0.19400799D-06
  0.14642072D-06  0.32690318D-06  0.20556549D-06  0.32565028D-07  0.73885891D-06
  0.46461431D-06  0.73602713D-07 -0.23337948D-06 -0.14675528D-06 -0.23248502D-07
 -0.57128528D-04 -0.55252225D-04 -0.17219705D-04 -0.22518968D-04  0.30120939D-04
  0.22732722D-04  0.15191197D-03  0.95526324D-04  0.15132975D-04  0.31272929D-03
  0.19665257D-03  0.31153071D-04 -0.28733775D-03 -0.18068569D-03 -0.28623648D-04
 -0.16627249D-07 -0.16081152D-07 -0.50117925D-08 -0.21561359D-08  0.28840060D-08
  0.21766023D-08  0.11554486D-07  0.72657706D-08  0.11510201D-08  0.23092921D-07
  0.14521448D-07  0.23004414D-08  0.42572189D-07  0.26770535D-07  0.42409025D-08
  0.18430925D-02  0.17825588D-02  0.55554572D-03  0.12605037D-02 -0.16860255D-02
 -0.12724686D-02 -0.38472886D-02 -0.24192783D-02 -0.38325433D-03 -0.25290234D-02
 -0.15903178D-02 -0.25193306D-03  0.43467057D-02  0.27333252D-02  0.43300463D-03
  0.22311534D-06  0.21578744D-06  0.67251521D-07  0.61035883D-06  0.59031249D-06
  0.18397462D-06  0.10354174D-04  0.10014106D-04  0.31209596D-05 -0.81829421D-05
 -0.79141853D-05 -0.24665059D-05  0.20374475D-06  0.19705305D-06  0.61412829D-07
 -0.34389969D-06 -0.33260481D-06 -0.10365839D-06  0.86035346D-05  0.83209641D-05
  0.25932811D-05  0.11133962D-07  0.10768284D-07  0.33560036D-08 -0.26941333D-07
 -0.26056484D-07 -0.81206681D-08 -0.10561035D-03 -0.10214173D-03 -0.31833116D-04
 -0.38430729D-05 -0.37168528D-05 -0.11583807D-05  0.10093342D-07  0.97618408D-08
  0.30423394D-08 -0.18330904D-09 -0.17728852D-09 -0.55253089D-10 -0.35517539D-04
 -0.34351017D-04 -0.10705712D-04
MO    3     MO 0.0        OCC NO =    2.0000000  ORB. ENERGY =  -14.111391
  0.25828971D-04  0.24980656D-04  0.77853793D-05  0.38031879D-05 -0.50870711D-05
 -0.38392884D-05  0.88976742D-04  0.55950963D-04  0.88635725D-05 -0.17954080D-04
 -0.11290007D-04 -0.17885268D-05 -0.49196464D-04 -0.30936056D-04 -0.49007911D-05
 -0.11974933D-03 -0.11581634D-03 -0.36094894D-04 -0.19899939D-04  0.26617776D-04
  0.20088832D-04 -0.96073030D-04 -0.60413299D-04 -0.95704816D-05  0.25406460D-03
  0.15976264D-03  0.25309086D-04 -0.11283468D-03 -0.70953475D-04 -0.11240223D-04
  0.34289942D+01  0.33163739D+01  0.10335689D+01 -0.67905846D-02  0.90829555D-02
  0.68550420D-02  0.60542760D-02  0.38070912D-02  0.60310721D-03 -0.25564530D-02
 -0.16075663D-02 -0.25466551D-03 -0.90151394D-03 -0.56689616D-03 -0.89805875D-04
  0.25335279D-04  0.24503179D-04  0.76365705D-05 -0.20977679D-06  0.28059340D-06
  0.21176803D-06  0.57733292D-07  0.36304243D-07  0.57512021D-08  0.58409138D-06
  0.36729233D-06  0.58185276D-07  0.48317265D-06  0.30383193D-06  0.48132082D-07
 -0.47933803D-04 -0.46359488D-04 -0.14448227D-04 -0.32644788D-04  0.43665041D-04
  0.32954658D-04 -0.38606213D-04 -0.24276623D-04 -0.38458249D-05  0.96961186D-04
  0.60971796D-04  0.96589568D-05  0.15270397D-04  0.96024355D-05  0.15211871D-05
 -0.10858197D-04 -0.10501576D-04 -0.32728824D-05 -0.41813153D-04  0.55928471D-04
  0.42210051D-04  0.10265371D-03  0.64551406D-04  0.10226027D-04  0.12856763D-03
  0.80846775D-04  0.12807487D-04  0.10625611D-05  0.66816694D-06  0.10584887D-06
  0.36261284D-05  0.35070335D-05  0.10929892D-05  0.30258806D-05 -0.40473598D-05
 -0.30546028D-05 -0.56480371D-05 -0.35516373D-05 -0.56263902D-06 -0.37214671D-06
 -0.23401584D-06 -0.37072041D-07 -0.98249722D-05 -0.61782062D-05 -0.97873166D-06
  0.15842535D-02  0.15322210D-02  0.47752637D-03  0.92425834D-03 -0.12362702D-02
 -0.93303156D-03  0.24102030D-04  0.15156003D-04  0.24009655D-05 -0.43363161D-02
 -0.27267919D-02 -0.43196966D-03  0.91066317D-03  0.57264944D-03  0.90717292D-04
  0.39038629D-06  0.37756462D-06  0.11767040D-06  0.36492715D-06 -0.48811954D-06
 -0.36839110D-06  0.36890615D-05  0.23197809D-05  0.36749226D-06 -0.20463750D-05
 -0.12868155D-05 -0.20385320D-06 -0.46072496D-07 -0.28971622D-07 -0.45895916D-08
 -0.75366434D-04 -0.72891134D-04 -0.22716983D-04 -0.69288387D-04  0.92678815D-04
  0.69946085D-04 -0.10201296D-03 -0.64148489D-04 -0.10162198D-04  0.31886068D-03
  0.20050815D-03  0.31763860D-04 -0.39732721D-04 -0.24985001D-04 -0.39580440D-05
 -0.12357145D-03 -0.11951293D-03 -0.37246960D-04 -0.60320971D-05 -0.58339817D-05
 -0.18181973D-05  0.10682119D-04  0.10331281D-04  0.32198089D-05 -0.29919827D-04
 -0.28937155D-04 -0.90184471D-05  0.23890275D-05  0.23105634D-05  0.72010170D-06
  0.10087399D-05  0.97560929D-06  0.30405480D-06  0.11353219D-03  0.10980339D-03
  0.34220921D-04  0.35833162D-05  0.34656274D-05  0.10800847D-05  0.13688386D-06
  0.13238811D-06  0.41259592D-07 -0.21508671D-02 -0.20802251D-02 -0.64831529D-03
 -0.21543183D-02 -0.20835628D-02 -0.64935553D-03 -0.15607103D-06 -0.15094510D-06
 -0.47042996D-07 -0.10085060D-06 -0.97538313D-07 -0.30398432D-07 -0.12916379D-05
 -0.12492159D-05 -0.38932605D-06
MO    4     MO 0.0        OCC NO =    2.0000000  ORB. ENERGY =  -14.099614
  0.19087861D-07  0.18460948D-07  0.57534711D-08 -0.14969869D-08  0.20023410D-08
  0.15111966D-08  0.96118832D-07  0.60442101D-07  0.95750443D-08  0.68467579D-07
  0.43054251D-07  0.68205167D-08 -0.31835249D-07 -0.20018859D-07 -0.31713236D-08
 -0.22387355D-08 -0.21652075D-08 -0.67480060D-09  0.13419107D-08 -0.17949140D-08
 -0.13546484D-08 -0.37530782D-07 -0.23600363D-07 -0.37386940D-08 -0.18279045D-07
 -0.11494354D-07 -0.18208988D-08 -0.28040646D-07 -0.17632711D-07 -0.27933176D-08
 -0.25893988D-04 -0.25043538D-04 -0.78049770D-05 -0.76550019D-08  0.10239183D-07
  0.77276645D-08 -0.90126352D-06 -0.56673869D-06 -0.89780930D-07  0.51770207D-08
  0.32554496D-08  0.51571790D-09  0.16398647D-08  0.10311909D-08  0.16335796D-09
  0.34290069D+01  0.33163862D+01  0.10335727D+01 -0.67859617D-02  0.90767720D-02
  0.68503752D-02 -0.26286192D-03 -0.16529463D-03 -0.26185446D-04  0.65224773D-02
  0.41015087D-02  0.64974789D-03 -0.81688736D-03 -0.51368069D-03 -0.81375652D-04
  0.25015400D-04  0.24193806D-04  0.75401526D-05  0.78539668D-05 -0.10505315D-04
 -0.79285181D-05  0.96662243D-04  0.60783812D-04  0.96291771D-05 -0.27522948D-04
 -0.17307169D-04 -0.27417463D-05 -0.17739371D-04 -0.11154993D-04 -0.17671382D-05
  0.41503373D-05  0.40140256D-05  0.12509964D-05  0.34046001D-05 -0.45539277D-05
 -0.34369172D-05  0.91074460D-05  0.57270065D-05  0.90725404D-06 -0.62720477D-05
 -0.39440319D-05 -0.62480092D-06 -0.87332598D-05 -0.54917081D-05 -0.86997883D-06
 -0.26081365D-04 -0.25224761D-04 -0.78614561D-05 -0.49636944D-04  0.66393422D-04
  0.50108106D-04 -0.20170636D-03 -0.12683837D-03 -0.20093329D-04 -0.26358750D-04
 -0.16575089D-04 -0.26257727D-05  0.43133240D-05  0.27123339D-05  0.42967926D-06
 -0.22141487D-06 -0.21414282D-06 -0.66738963D-07 -0.23614498D-06  0.31586298D-06
  0.23838651D-06 -0.10839485D-05 -0.68161591D-06 -0.10797941D-06 -0.22641249D-06
 -0.14237425D-06 -0.22554473D-07 -0.57192559D-06 -0.35964216D-06 -0.56973361D-07
  0.15775704D-02  0.15257574D-02  0.47551195D-03  0.92121464D-03 -0.12321990D-02
 -0.92995897D-03  0.34444618D-02  0.21659700D-02  0.34312604D-03  0.18582411D-02
  0.11685119D-02  0.18511191D-03  0.19434651D-02  0.12221030D-02  0.19360165D-03
  0.96236040D-07  0.93075308D-07  0.29007508D-07  0.40181610D-07 -0.53746150D-07
 -0.40563021D-07  0.24495061D-06  0.15403152D-06  0.24401181D-07  0.12796030D-06
  0.80464871D-07  0.12746987D-07  0.76444879D-07  0.48070591D-07  0.76151893D-08
 -0.67688860D-05 -0.65465718D-05 -0.20402805D-05 -0.59095732D-05 -0.57154820D-05
 -0.17812661D-05 -0.64030442D-06 -0.61927456D-06 -0.19300083D-06  0.13745940D-05
  0.13294475D-05  0.41433071D-06 -0.38870441D-04 -0.37593798D-04 -0.11716345D-04
  0.32458483D-04  0.31392431D-04  0.97836497D-05  0.14573597D-06  0.14094948D-06
  0.43927797D-07  0.12528690D-03  0.12117204D-03  0.37764031D-04  0.96626501D-04
  0.93452945D-04  0.29125201D-04  0.63984499D-07  0.61883022D-07  0.19286235D-07
  0.61280113D-07  0.59267458D-07  0.18471078D-07 -0.21566328D-02 -0.20858014D-02
 -0.65005318D-03 -0.21555510D-02 -0.20847551D-02 -0.64972710D-03 -0.58708079D-08
 -0.56779898D-08 -0.17695814D-08
MO    5     MO 0.0        OCC NO =    2.0000000  ORB. ENERGY =  -10.100610
  0.26270408D-02  0.25407595D-02  0.79184374D-03  0.12875464D-02 -0.17221973D-02
 -0.12997680D-02  0.15322897D-02  0.96354489D-03  0.15264170D-03 -0.58322229D-02
 -0.36674583D-02 -0.58098701D-03  0.23815683D-02  0.14975941D-02  0.23724406D-03
  0.23457963D-02  0.22687521D-02  0.70707093D-03  0.18080925D-02 -0.24184698D-02
 -0.18252552D-02  0.32098791D-02  0.20184581D-02  0.31975768D-03  0.22573687D-02
  0.14194940D-02  0.22487170D-03 -0.37007782D-02 -0.23271487D-02 -0.36865945D-03
 -0.15851029D-03 -0.15330425D-03 -0.47778240D-04 -0.11809723D-03  0.15796458D-03
  0.11921823D-03  0.88197531D-04  0.55460974D-04  0.87859501D-05 -0.11855110D-03
 -0.74548116D-04 -0.11809674D-04 -0.98100929D-04 -0.61688497D-04 -0.97724943D-05
  0.18875057D-06  0.18255133D-06  0.56893277D-07  0.68449173D-07 -0.91556299D-07
 -0.69098905D-07 -0.41091573D-06 -0.25839484D-06 -0.40934084D-07 -0.40070271D-07
 -0.25197262D-07 -0.39916696D-08 -0.18042904D-06 -0.11345862D-06 -0.17973752D-07
 -0.37683460D-03 -0.36445802D-03 -0.11358565D-03  0.25991285D-04 -0.34765444D-04
 -0.26237999D-04 -0.12027805D-03 -0.75634063D-04 -0.11981706D-04  0.64875571D-05
  0.40795500D-05  0.64626926D-06  0.10255174D-04  0.64487286D-05  0.10215870D-05
 -0.10081129D-02 -0.97500294D-03 -0.30386583D-03 -0.41228583D-04  0.55146561D-04
  0.41619932D-04 -0.20012381D-03 -0.12584322D-03 -0.19935681D-04  0.10844482D-03
  0.68193015D-04  0.10802919D-04  0.99045051D-04  0.62282186D-04  0.98665446D-05
 -0.15009002D-04 -0.14516053D-04 -0.45240198D-05  0.18228067D-05 -0.24381512D-05
 -0.18401091D-05  0.22958357D-05  0.14436831D-05  0.22870366D-06 -0.27710050D-05
 -0.17424823D-05 -0.27603847D-06 -0.43446162D-05 -0.27320112D-05 -0.43279648D-06
 -0.28776962D-01 -0.27831825D-01 -0.86739643D-02  0.11032039D-02 -0.14756244D-02
 -0.11136757D-02 -0.38124786D-02 -0.23973888D-02 -0.37978667D-03  0.17027154D-02
  0.10707131D-02  0.16961895D-03  0.16557786D-02  0.10411980D-02  0.16494326D-03
 -0.15242995D-05 -0.14742361D-05 -0.45945500D-06 -0.20758711D-06  0.27766453D-06
  0.20955756D-06  0.27732443D-07  0.17438905D-07  0.27626155D-08 -0.94077136D-06
 -0.59158228D-06 -0.93716572D-07 -0.89053538D-06 -0.55999255D-06 -0.88712228D-07
  0.26839156D+01  0.25957663D+01  0.80898699D+00 -0.60371094D-02  0.80751215D-02
  0.60944147D-02  0.39569599D-03  0.24882426D-03  0.39417943D-04  0.27233968D-03
  0.17125450D-03  0.27129590D-04 -0.52002867D-03 -0.32700798D-03 -0.51803558D-04
 -0.18035318D-05 -0.17442974D-05 -0.54362132D-06  0.25126307D-05  0.24301070D-05
  0.75735821D-06 -0.60447452D-04 -0.58462144D-04 -0.18220097D-04 -0.69781312D-04
 -0.67489447D-04 -0.21033513D-04  0.20773222D-05  0.20090956D-05  0.62614735D-06
  0.21286446D-05  0.20587323D-05  0.64161695D-06 -0.14208804D-05 -0.13742137D-05
 -0.42828239D-06 -0.73793907D-08 -0.71370254D-08 -0.22242991D-08 -0.16670486D-06
 -0.16122968D-06 -0.50248249D-07 -0.17610208D-03 -0.17031826D-03 -0.53080763D-04
 -0.82107125D-04 -0.79410437D-04 -0.24748765D-04 -0.82351382D-07 -0.79646671D-07
 -0.24822388D-07  0.89541593D-08  0.86600731D-08  0.26989665D-08 -0.47124292D-03
 -0.45576564D-03 -0.14204224D-03
MO    6     MO 0.0        OCC NO =    2.0000000  ORB. ENERGY =  -10.055004
 -0.56737509D-04 -0.54874049D-04 -0.17101844D-04 -0.58894138D-04  0.78775667D-04
  0.59453171D-04 -0.47869449D-04 -0.30101594D-04 -0.47685982D-05  0.18287714D-03
  0.11499805D-03  0.18217623D-04 -0.76554143D-05 -0.48139300D-05 -0.76260739D-06
 -0.84738653D-04 -0.81955536D-04 -0.25541961D-04 -0.27320300D-04  0.36543109D-04
  0.27579629D-04 -0.42550335D-03 -0.26756792D-03 -0.42387255D-04  0.41183721D-03
  0.25897429D-03  0.41025879D-04  0.79936161D-04  0.50266003D-04  0.79629794D-05
  0.26764221D-02  0.25885190D-02  0.80672830D-03  0.11529024D-02 -0.15421001D-02
 -0.11638459D-02  0.99593081D-04  0.62626802D-04  0.99211376D-05  0.56799521D-02
  0.35717063D-02  0.56581829D-03 -0.13043570D-02 -0.82021470D-03 -0.12993579D-03
 -0.48890166D-06 -0.47284440D-06 -0.14736495D-06 -0.27984264D-06  0.37431214D-06
  0.28249895D-06  0.43656657D-06  0.27452478D-06  0.43489337D-07  0.88850909D-06
  0.55871836D-06  0.88510375D-07  0.94495890D-06  0.59421552D-06  0.94133721D-07
 -0.11296418D-02 -0.10925404D-02 -0.34049711D-03 -0.40693488D-04  0.54430828D-04
  0.41079758D-04  0.19693978D-04  0.12384102D-04  0.19618498D-05 -0.80334216D-04
 -0.50516311D-04 -0.80026323D-05 -0.12005863D-03 -0.75496091D-04 -0.11959849D-04
 -0.34418038D-01 -0.33287628D-01 -0.10374300D-01  0.12115913D-02 -0.16206012D-02
 -0.12230919D-02 -0.38116230D-02 -0.23968508D-02 -0.37970144D-03 -0.21918596D-02
 -0.13783001D-02 -0.21834589D-03 -0.19200902D-02 -0.12074042D-02 -0.19127311D-03
 -0.65270154D-03 -0.63126452D-03 -0.19673758D-03  0.18979248D-04 -0.25386278D-04
 -0.19159402D-04 -0.10120514D-03 -0.63640509D-04 -0.10081726D-04  0.77574952D-05
  0.48781212D-05  0.77277635D-06 -0.43983298D-05 -0.27657878D-05 -0.43814726D-06
  0.26816952D+01  0.25936188D+01  0.80831771D+00 -0.68932490D-02  0.92202774D-02
  0.69586809D-02 -0.32835505D-04 -0.20647847D-04 -0.32709659D-05 -0.32073630D-03
 -0.20168759D-03 -0.31950703D-04  0.46672830D-03  0.29349128D-03  0.46493949D-04
 -0.60937432D-04 -0.58936032D-04 -0.18367787D-04  0.19097333D-05 -0.25544226D-05
 -0.19278608D-05 -0.19998252D-05 -0.12575437D-05 -0.19921606D-06  0.34781790D-05
  0.21871723D-05  0.34648484D-06  0.58186540D-05  0.36589258D-05  0.57963532D-06
  0.32868142D-01  0.31788636D-01  0.99071293D-02  0.10485619D-02 -0.14025363D-02
 -0.10585151D-02  0.40370887D-02  0.25386297D-02  0.40216160D-03 -0.20738814D-02
 -0.13041122D-02 -0.20659329D-03 -0.16737061D-02 -0.10524713D-02 -0.16672914D-03
 -0.38810470D-04 -0.37535797D-04 -0.11698268D-04  0.14976864D-04  0.14484971D-04
  0.45143329D-05  0.46800053D-04  0.45262973D-04  0.14106492D-04  0.60290403D-04
  0.58310253D-04  0.18172759D-04 -0.20865051D-05 -0.20179769D-05 -0.62891527D-06
 -0.52529462D-06 -0.50804208D-06 -0.15833453D-06 -0.25466717D-02 -0.24630300D-02
 -0.76761887D-03  0.15607888D-05  0.15095270D-05  0.47045362D-06 -0.49515317D-07
 -0.47889059D-07 -0.14924928D-07 -0.15656819D-03 -0.15142593D-03 -0.47192850D-04
 -0.13378169D-03 -0.12938782D-03 -0.40324533D-04 -0.53116943D-07 -0.51372395D-07
 -0.16010532D-07 -0.12183007D-06 -0.11782874D-06 -0.36722071D-07 -0.45280460D-04
 -0.43793289D-04 -0.13648455D-04
MO    7     MO 0.0        OCC NO =    2.0000000  ORB. ENERGY =  -10.030254
  0.41768840D-07  0.40397004D-07  0.12589982D-07  0.65252671D-08 -0.87280719D-08
 -0.65872060D-08  0.10196790D-06  0.64120150D-07  0.10157709D-07  0.11912848D-07
  0.74911186D-08  0.11867190D-08 -0.58528320D-07 -0.36804178D-07 -0.58304002D-08
  0.44237588D-08  0.42784669D-08  0.13334113D-08  0.18034085D-08 -0.24122046D-08
 -0.18205268D-08 -0.72845318D-08 -0.45807091D-08 -0.72566128D-09 -0.17989230D-06
 -0.11312110D-06 -0.17920284D-07 -0.14234353D-06 -0.89509432D-07 -0.14179798D-07
  0.43061721D-06  0.41647421D-06  0.12979682D-06  0.18741346D-06 -0.25068064D-06
 -0.18919242D-06  0.23323127D-06  0.14666208D-06  0.23233738D-07  0.33505423D-07
  0.21069109D-07  0.33377009D-08 -0.64788989D-06 -0.40741055D-06 -0.64540676D-07
  0.26778468D-02  0.25898968D-02  0.80715772D-03  0.11416001D-02 -0.15269823D-02
 -0.11524363D-02 -0.45950616D-02 -0.28894980D-02 -0.45774503D-03 -0.23520746D-02
 -0.14790477D-02 -0.23430600D-03 -0.26371397D-02 -0.16583042D-02 -0.26270325D-03
 -0.16881191D-02 -0.16326753D-02 -0.50883356D-03 -0.43678772D-04  0.58423886D-04
  0.44093379D-04 -0.81387924D-04 -0.51178911D-04 -0.81075993D-05 -0.11158558D-03
 -0.70168005D-04 -0.11115791D-04 -0.12379549D-03 -0.77845924D-04 -0.12332102D-04
 -0.23439647D-02 -0.22669806D-02 -0.70651884D-03  0.21798574D-04 -0.29157354D-04
 -0.22005490D-04  0.94954102D-04  0.59709688D-04  0.94590177D-05  0.10466974D-04
  0.65819143D-05  0.10426858D-05  0.10708118D-04  0.67335518D-05  0.10667077D-05
 -0.56418081D-01 -0.54565112D-01 -0.17005562D-01  0.12864785D-02 -0.17207689D-02
 -0.12986899D-02  0.41501852D-02  0.26097478D-02  0.41342790D-03 -0.17273633D-02
 -0.10862124D-02 -0.17207429D-03 -0.18196382D-02 -0.11442374D-02 -0.18126642D-03
  0.15952856D-04  0.15428908D-04  0.48085167D-05  0.71551148D-06 -0.95705441D-06
 -0.72230324D-06 -0.40871980D-06 -0.25701398D-06 -0.40715332D-07  0.43003126D-05
  0.27041520D-05  0.42838310D-06  0.32873064D-05  0.20671465D-05  0.32747073D-06
  0.26813687D+01  0.25933030D+01  0.80821929D+00 -0.70285186D-02  0.94012115D-02
  0.70952345D-02  0.40391159D-03  0.25399044D-03  0.40236354D-04  0.23800710D-03
  0.14966525D-03  0.23709491D-04  0.58540619D-03  0.36811912D-03  0.58316253D-04
  0.70066524D-08  0.67765292D-08  0.21119482D-08 -0.94397318D-07  0.12626404D-06
  0.95293354D-07 -0.24308423D-06 -0.15285789D-06 -0.24215257D-07  0.48259863D-06
  0.30347097D-06  0.48074900D-07  0.35222425D-06  0.22148806D-06  0.35087430D-07
  0.12943885D-04  0.12518762D-04  0.39015515D-05  0.90968926D-05  0.87981185D-05
  0.27419892D-05 -0.12771651D-05 -0.12352184D-05 -0.38496363D-06  0.89873725D-06
  0.86921954D-06  0.27089776D-06  0.76958843D-04  0.74431243D-04  0.23196967D-04
  0.75727581D-04  0.73240420D-04  0.22825840D-04  0.10929125D-06  0.10570173D-06
  0.32942614D-07 -0.25097488D-02 -0.24273198D-02 -0.75648957D-03 -0.25460371D-02
 -0.24624163D-02 -0.76742760D-03  0.65676601D-07  0.63519550D-07  0.19796269D-07
 -0.15433870D-07 -0.14926967D-07 -0.46520836D-08 -0.14486206D-03 -0.14010427D-03
 -0.43664382D-04 -0.12582468D-03 -0.12169215D-03 -0.37926129D-04  0.61498590D-08
  0.59478759D-08  0.18536931D-08
MO    8     MO 0.0        OCC NO =    2.0000000  ORB. ENERGY =  -10.016944
 -0.85484197D-04 -0.82676593D-04 -0.25766683D-04 -0.25267628D-04  0.33797494D-04
  0.25507473D-04 -0.15099805D-03 -0.94951625D-04 -0.15041933D-04  0.49868854D-04
  0.31358873D-04  0.49677724D-05 -0.23217420D-04 -0.14599737D-04 -0.23128436D-05
 -0.33290247D-04 -0.32196878D-04 -0.10034361D-04 -0.67480461D-05  0.90260568D-05
  0.68120997D-05 -0.79283015D-04 -0.49855287D-04 -0.78979151D-05 -0.30377376D-04
 -0.19102109D-04 -0.30260951D-05 -0.18858767D-04 -0.11858899D-04 -0.18786488D-05
  0.66096915D-04  0.63926059D-04  0.19922960D-04 -0.27201558D-04  0.36384282D-04
  0.27459760D-04  0.10705515D-03  0.67319152D-04  0.10664485D-04 -0.38042463D-04
 -0.23922122D-04 -0.37896660D-05  0.86154867D-04  0.54176492D-04  0.85824666D-05
  0.55187431D-05  0.53374881D-05  0.16634619D-05  0.25835494D-05 -0.34557060D-05
 -0.26080729D-05 -0.45010391D-05 -0.28303741D-05 -0.44837882D-06 -0.10298506D-04
 -0.64759768D-05 -0.10259035D-05 -0.93284435D-05 -0.58659756D-05 -0.92926909D-06