 opt methionine pbe0
GAUSSIAN             60 MOL ORBITALS    180 PRIMITIVES       20 NUCLEI
  S    1    (CENTRE  1)   4.02567714 -1.22520531 -0.93085587  CHARGE = 16.0
  O    2    (CENTRE  2)  -2.84075484 -3.26197493 -0.54069722  CHARGE =  8.0
  O    3    (CENTRE  3)  -6.03793581 -0.40546569  0.36198202  CHARGE =  8.0
  N    4    (CENTRE  4)  -2.87678826  3.81451081 -0.84900885  CHARGE =  7.0
  C    5    (CENTRE  5)   0.12443839  1.27716843  1.74834972  CHARGE =  6.0
  C    6    (CENTRE  6)  -1.71744346  1.25057709 -0.53538996  CHARGE =  6.0
  C    7    (CENTRE  7)   1.93183785 -1.02347331  1.76360151  CHARGE =  6.0
  C    8    (CENTRE  8)  -3.79331234 -0.81604155 -0.18404082  CHARGE =  6.0
  C    9    (CENTRE  9)   6.13643019  1.31768318 -0.10961807  CHARGE =  6.0
  H   10    (CENTRE 10)   1.20061244  3.04565765  1.65285755  CHARGE =  1.0
  H   11    (CENTRE 11)  -0.95861649  1.31271745  3.51805349  CHARGE =  1.0
  H   12    (CENTRE 12)  -0.61286164  0.80311236 -2.24432266  CHARGE =  1.0
  H   13    (CENTRE 13)   0.78783686 -2.75241251  1.74586114  CHARGE =  1.0
  H   14    (CENTRE 14)   3.02285264 -1.00444055  3.52875170  CHARGE =  1.0
  H   15    (CENTRE 15)  -4.26935365  3.90120030  0.56617956  CHARGE =  1.0
  H   16    (CENTRE 16)  -3.97886081  3.68105266 -2.49496618  CHARGE =  1.0
  H   17    (CENTRE 17)   5.20400384  3.16596171 -0.12122485  CHARGE =  1.0
  H   18    (CENTRE 18)   7.65697217  1.36945979 -1.50826163  CHARGE =  1.0
  H   19    (CENTRE 19)   6.99238514  1.04047652  1.75552517  CHARGE =  1.0
  H   20    (CENTRE 20)  -4.38046549 -4.35703406 -0.22939000  CHARGE =  1.0
CENTRE ASSIGNMENTS    1  1  1  1  1  1  1  1  1  1  1  1  1  1  1  1  1  1  1  1
CENTRE ASSIGNMENTS    1  1  1  1  1  1  1  2  2  2  2  2  2  2  2  2  2  2  2  2
CENTRE ASSIGNMENTS    2  2  3  3  3  3  3  3  3  3  3  3  3  3  3  3  3  4  4  4
CENTRE ASSIGNMENTS    4  4  4  4  4  4  4  4  4  4  4  4  5  5  5  5  5  5  5  5
CENTRE ASSIGNMENTS    5  5  5  5  5  5  5  6  6  6  6  6  6  6  6  6  6  6  6  6
CENTRE ASSIGNMENTS    6  6  7  7  7  7  7  7  7  7  7  7  7  7  7  7  7  8  8  8
CENTRE ASSIGNMENTS    8  8  8  8  8  8  8  8  8  8  8  8  9  9  9  9  9  9  9  9
CENTRE ASSIGNMENTS    9  9  9  9  9  9  9 10 10 10 11 11 11 12 12 12 13 13 13 14
CENTRE ASSIGNMENTS   14 14 15 15 15 16 16 16 17 17 17 18 18 18 19 19 19 20 20 20
TYPE ASSIGNMENTS      1  1  1  1  1  1  2  2  2  3  3  3  4  4  4  1  1  1  2  2
TYPE ASSIGNMENTS      2  3  3  3  4  4  4  1  1  1  1  1  1  2  2  2  3  3  3  4
TYPE ASSIGNMENTS      4  4  1  1  1  1  1  1  2  2  2  3  3  3  4  4  4  1  1  1
TYPE ASSIGNMENTS      1  1  1  2  2  2  3  3  3  4  4  4  1  1  1  1  1  1  2  2
TYPE ASSIGNMENTS      2  3  3  3  4  4  4  1  1  1  1  1  1  2  2  2  3  3  3  4
TYPE ASSIGNMENTS      4  4  1  1  1  1  1  1  2  2  2  3  3  3  4  4  4  1  1  1
TYPE ASSIGNMENTS      1  1  1  2  2  2  3  3  3  4  4  4  1  1  1  1  1  1  2  2
TYPE ASSIGNMENTS      2  3  3  3  4  4  4  1  1  1  1  1  1  1  1  1  1  1  1  1
TYPE ASSIGNMENTS      1  1  1  1  1  1  1  1  1  1  1  1  1  1  1  1  1  1  1  1
EXPONENTS  0.5331257D+03 0.9710952D+02 0.2628163D+02 0.3332975D+02 0.7745118D+01
EXPONENTS  0.2518953D+01 0.3332975D+02 0.7745118D+01 0.2518953D+01 0.3332975D+02
EXPONENTS  0.7745118D+01 0.2518953D+01 0.3332975D+02 0.7745118D+01 0.2518953D+01
EXPONENTS  0.2029194D+01 0.5661401D+00 0.2215834D+00 0.2029194D+01 0.5661401D+00
EXPONENTS  0.2215834D+00 0.2029194D+01 0.5661401D+00 0.2215834D+00 0.2029194D+01
EXPONENTS  0.5661401D+00 0.2215834D+00 0.1307093D+03 0.2380887D+02 0.6443608D+01
EXPONENTS  0.5033151D+01 0.1169596D+01 0.3803890D+00 0.5033151D+01 0.1169596D+01
EXPONENTS  0.3803890D+00 0.5033151D+01 0.1169596D+01 0.3803890D+00 0.5033151D+01
EXPONENTS  0.1169596D+01 0.3803890D+00 0.1307093D+03 0.2380887D+02 0.6443608D+01
EXPONENTS  0.5033151D+01 0.1169596D+01 0.3803890D+00 0.5033151D+01 0.1169596D+01
EXPONENTS  0.3803890D+00 0.5033151D+01 0.1169596D+01 0.3803890D+00 0.5033151D+01
EXPONENTS  0.1169596D+01 0.3803890D+00 0.9910617D+02 0.1805231D+02 0.4885660D+01
EXPONENTS  0.3780456D+01 0.8784966D+00 0.2857144D+00 0.3780456D+01 0.8784966D+00
EXPONENTS  0.2857144D+00 0.3780456D+01 0.8784966D+00 0.2857144D+00 0.3780456D+01
EXPONENTS  0.8784966D+00 0.2857144D+00 0.7161684D+02 0.1304510D+02 0.3530512D+01
EXPONENTS  0.2941249D+01 0.6834831D+00 0.2222899D+00 0.2941249D+01 0.6834831D+00
EXPONENTS  0.2222899D+00 0.2941249D+01 0.6834831D+00 0.2222899D+00 0.2941249D+01
EXPONENTS  0.6834831D+00 0.2222899D+00 0.7161684D+02 0.1304510D+02 0.3530512D+01
EXPONENTS  0.2941249D+01 0.6834831D+00 0.2222899D+00 0.2941249D+01 0.6834831D+00
EXPONENTS  0.2222899D+00 0.2941249D+01 0.6834831D+00 0.2222899D+00 0.2941249D+01
EXPONENTS  0.6834831D+00 0.2222899D+00 0.7161684D+02 0.1304510D+02 0.3530512D+01
EXPONENTS  0.2941249D+01 0.6834831D+00 0.2222899D+00 0.2941249D+01 0.6834831D+00
EXPONENTS  0.2222899D+00 0.2941249D+01 0.6834831D+00 0.2222899D+00 0.2941249D+01
EXPONENTS  0.6834831D+00 0.2222899D+00 0.7161684D+02 0.1304510D+02 0.3530512D+01
EXPONENTS  0.2941249D+01 0.6834831D+00 0.2222899D+00 0.2941249D+01 0.6834831D+00
EXPONENTS  0.2222899D+00 0.2941249D+01 0.6834831D+00 0.2222899D+00 0.2941249D+01
EXPONENTS  0.6834831D+00 0.2222899D+00 0.7161684D+02 0.1304510D+02 0.3530512D+01
EXPONENTS  0.2941249D+01 0.6834831D+00 0.2222899D+00 0.2941249D+01 0.6834831D+00
EXPONENTS  0.2222899D+00 0.2941249D+01 0.6834831D+00 0.2222899D+00 0.2941249D+01
EXPONENTS  0.6834831D+00 0.2222899D+00 0.3425251D+01 0.6239137D+00 0.1688554D+00
EXPONENTS  0.3425251D+01 0.6239137D+00 0.1688554D+00 0.3425251D+01 0.6239137D+00
EXPONENTS  0.1688554D+00 0.3425251D+01 0.6239137D+00 0.1688554D+00 0.3425251D+01
EXPONENTS  0.6239137D+00 0.1688554D+00 0.3425251D+01 0.6239137D+00 0.1688554D+00
EXPONENTS  0.3425251D+01 0.6239137D+00 0.1688554D+00 0.3425251D+01 0.6239137D+00
EXPONENTS  0.1688554D+00 0.3425251D+01 0.6239137D+00 0.1688554D+00 0.3425251D+01
EXPONENTS  0.6239137D+00 0.1688554D+00 0.3425251D+01 0.6239137D+00 0.1688554D+00
MO    1     MO 0.0        OCC NO =    2.0000013  ORB. ENERGY =    0.000000
 -0.17270335D+01 -0.16703116D+01 -0.52056318D+00 -0.40147164D+00  0.53700076D+00
  0.40528248D+00  0.81975015D+00  0.51548089D+00  0.81660834D-01  0.10428513D+02
  0.65577287D+01  0.10388544D+01  0.12067818D+02  0.75885676D+01  0.12021566D+01
 -0.13904689D-01  0.54830114D-02  0.10828880D-01  0.14491975D-03  0.16518440D-02
  0.39695359D-03  0.16571086D-02  0.18888281D-01  0.45390310D-02  0.19396649D-02
  0.22108952D-01  0.53129884D-02  0.85861081D-02  0.83041099D-02  0.25880284D-02
  0.26612993D-04 -0.35597028D-04 -0.26865608D-04 -0.68527952D-04 -0.43092215D-04
 -0.68265308D-05  0.40938352D-04  0.25743134D-04  0.40781449D-05  0.18765091D-04
  0.11799993D-04  0.18693171D-05  0.21562730D-02  0.20854534D-02  0.64994472D-03
  0.22011332D-05 -0.29441934D-05 -0.22220267D-05  0.32559669D-04  0.20474394D-04
  0.32434880D-05  0.13773229D-04  0.86609762D-05  0.13720441D-05  0.92161887D-05
  0.57953868D-05  0.91808663D-06 -0.13750849D-01 -0.13299223D-01 -0.41447868D-02
 -0.34385035D-05  0.45992762D-05  0.34711424D-05  0.13965639D-03  0.87819685D-04
  0.13912114D-04  0.18574179D-03  0.11679942D-03  0.18502991D-04 -0.64505247D-05
 -0.40562630D-05 -0.64258021D-06 -0.11511961D-02 -0.11133868D-02 -0.34699403D-03
 -0.58290079D-04  0.77967689D-04  0.58843378D-04 -0.82351530D-04 -0.51784852D-04
 -0.82035906D-05  0.16137262D-03  0.10147543D-03  0.16075414D-04  0.35955444D-03
  0.22609748D-03  0.35817640D-04 -0.79456860D-02 -0.76847216D-02 -0.23949921D-02
 -0.23858228D-04  0.31912307D-04  0.24084694D-04 -0.30854605D-05 -0.19402204D-05
 -0.30736350D-06 -0.37874270D-04 -0.23816357D-04 -0.37729111D-05 -0.97956597D-04
 -0.61597737D-04 -0.97581164D-05  0.14077565D-01  0.13615208D-01  0.42432657D-02
  0.10454420D-02 -0.13983631D-02 -0.10553655D-02 -0.26519712D-02 -0.16676307D-02
 -0.26418072D-03 -0.56816066D-03 -0.35727467D-03 -0.56598310D-04  0.18116136D-02
  0.11391912D-02  0.18046703D-03  0.20606589D-02  0.19929796D-02  0.62112468D-03
  0.33046534D-05 -0.44202408D-05 -0.33360217D-05 -0.21079666D-04 -0.13255460D-04
 -0.20998875D-05 -0.21533617D-04 -0.13540916D-04 -0.21451086D-05  0.37182675D-05
  0.23381464D-05  0.37040167D-06  0.32043985D-01  0.30991547D-01  0.96587115D-02
  0.11163513D-02 -0.14932100D-02 -0.11269479D-02  0.24327576D-02  0.15297833D-02
  0.24234337D-03  0.21086476D-02  0.13259742D-02  0.21005659D-03 -0.14242354D-03
 -0.89559745D-04 -0.14187768D-04 -0.19644967D-03 -0.18999757D-03 -0.59213943D-04
  0.89629351D-04  0.86685606D-04  0.27016117D-04 -0.94437425D-04 -0.91335766D-04
 -0.28465369D-04 -0.27653199D-03 -0.26744970D-03 -0.83352389D-04 -0.61585156D-05
 -0.59562482D-05 -0.18563024D-05  0.15231493D-04  0.14731237D-04  0.45910831D-05
  0.11362633D-04  0.10989444D-04  0.34249297D-05 -0.10717915D-03 -0.10365900D-03
 -0.32305984D-04 -0.34520707D-03 -0.33386925D-03 -0.10405246D-03 -0.99276580D-04
 -0.96015986D-04 -0.29923989D-04 -0.72524431D-05 -0.70142473D-05 -0.21860345D-05
MO    2     MO 0.0        OCC NO =    2.0000010  ORB. ENERGY =    0.000000
  0.12970300D+00  0.12544310D+00  0.39095134D-01  0.29654498D-01 -0.39665287D-01
 -0.29935984D-01  0.14230785D+02  0.89486994D+01  0.14176243D+01  0.72191399D+01
  0.45395889D+01  0.71914715D+00 -0.69205315D+01 -0.43518159D+01 -0.68940075D+00
  0.74031451D-03 -0.29192692D-03 -0.57655207D-03  0.21930132D-02  0.24996702D-01
  0.60069417D-02  0.11261215D-02  0.12835911D-01  0.30845897D-02 -0.10775150D-02
 -0.12281879D-01 -0.29514505D-02  0.16021076D-02  0.15494887D-02  0.48290796D-03
  0.50018530D-05 -0.66903824D-05 -0.50493314D-05 -0.65862974D-04 -0.41416405D-04
 -0.65610544D-05  0.13771515D-04  0.86598980D-05  0.13718733D-05 -0.93190210D-04
 -0.58600505D-04 -0.92833045D-05  0.40059927D-03  0.38744217D-03  0.12074880D-03
  0.30961736D-05 -0.41413823D-05 -0.31255630D-05 -0.11880201D-04 -0.74705893D-05
 -0.11834669D-05 -0.22511288D-05 -0.14155702D-05 -0.22425011D-06 -0.23326810D-04
 -0.14668524D-04 -0.23237407D-05  0.45363223D-01  0.43873334D-01  0.13673402D-01
 -0.11059452D-04  0.14792911D-04  0.11164431D-04 -0.34398703D-03 -0.21630828D-03
 -0.34266865D-04 -0.42604781D-03 -0.26791030D-03 -0.42441493D-04 -0.19793385D-04
 -0.12446611D-04 -0.19717524D-05  0.20276514D-01  0.19610562D-01  0.61117556D-02
 -0.96923526D-04  0.12964305D-03  0.97843541D-04  0.61520579D-03  0.38685791D-03
  0.61284792D-04 -0.37747700D-03 -0.23736767D-03 -0.37603027D-04 -0.52438240D-04
 -0.32974573D-04 -0.52237263D-05  0.13863826D-01  0.13408489D-01  0.41788405D-02
  0.12769420D-04 -0.17080131D-04 -0.12890630D-04  0.65166093D-04  0.40978188D-04
  0.64916335D-05 -0.48223547D-04 -0.30324261D-04 -0.48038723D-05  0.39424684D-03
  0.24791299D-03  0.39273583D-04 -0.89274995D-01 -0.86342888D-01 -0.26909307D-01
 -0.72196819D-03  0.96569078D-03  0.72882124D-03  0.99639467D-03  0.62655971D-03
  0.99257585D-04 -0.13458823D-02 -0.84632690D-03 -0.13407240D-03 -0.25318374D-02
 -0.15920873D-02 -0.25221338D-03  0.30538475D-03  0.29535484D-03  0.92049202D-04
  0.41629400D-05 -0.55682686D-05 -0.42024554D-05 -0.41759836D-04 -0.26259705D-04
 -0.41599785D-05  0.13840677D-04  0.87033893D-05  0.13787631D-05 -0.11594537D-04
 -0.72909562D-05 -0.11550100D-05  0.89732489D-01  0.86785357D-01  0.27047205D-01
  0.60106725D-03 -0.80397601D-03 -0.60677269D-03  0.42771804D-03  0.26896058D-03
  0.42607875D-04  0.15922774D-02  0.10012668D-02  0.15861748D-03  0.16036826D-02
  0.10084386D-02  0.15975362D-03  0.54384534D-04  0.52598354D-04  0.16392609D-04
 -0.23621696D-03 -0.22845876D-03 -0.71200618D-04  0.19239711D-03  0.18607811D-03
  0.57992418D-04  0.13071876D-03  0.12642549D-03  0.39401304D-04  0.41582417D-03
  0.40216704D-03  0.12533790D-03 -0.35771531D-04 -0.34596668D-04 -0.10782270D-04
 -0.19579041D-04 -0.18935996D-04 -0.59015229D-05 -0.41333365D-03 -0.39975831D-03
 -0.12458721D-03 -0.38048358D-04 -0.36798715D-04 -0.11468552D-04 -0.40934386D-03
 -0.39589956D-03 -0.12338460D-03 -0.13383013D-05 -0.12943468D-05 -0.40339136D-06
MO    3     MO 0.0        OCC NO =    2.0000005  ORB. ENERGY =    0.000000
 -0.42248782D-02 -0.40861183D-02 -0.12734646D-02 -0.10794475D-02  0.14438482D-02
  0.10896938D-02 -0.14633676D+00 -0.92020479D-01 -0.14577590D-01 -0.51297621D-01
 -0.32257321D-01 -0.51101015D-02  0.10854266D+00  0.68254539D-01  0.10812666D-01
 -0.47140322D-04  0.18588760D-04  0.36712573D-04 -0.19532067D-04 -0.22263307D-03
 -0.53500813D-04 -0.97949792D-05 -0.11164647D-03 -0.26829692D-04  0.15243900D-04
  0.17375510D-03  0.41754979D-04  0.14308508D+00  0.13838566D+00  0.43128767D-01
  0.27608172D-03 -0.36928160D-03 -0.27870233D-03 -0.60217326D-03 -0.37866271D-03
 -0.59986535D-04 -0.86986634D-03 -0.54699530D-03 -0.86653245D-04  0.43915365D-03
  0.27615160D-03  0.43747053D-04  0.20979196D+01  0.20290165D+01  0.63235583D+00
  0.16599229D-03 -0.22202809D-03 -0.16756791D-03  0.11240134D-01  0.70680981D-02
  0.11197055D-02 -0.18281684D-02 -0.11496013D-02 -0.18211616D-03 -0.24128815D-02
 -0.15172847D-02 -0.24036338D-03  0.27496912D+01  0.26593816D+01  0.82881308D+00
 -0.22228111D-02  0.29731894D-02  0.22439104D-02 -0.13562704D-01 -0.85285920D-02
 -0.13510723D-02 -0.14512448D-01 -0.91258165D-02 -0.14456826D-02 -0.66399575D-04
 -0.41753835D-04 -0.66145089D-05  0.23236693D-01  0.22473518D-01  0.70040140D-02
 -0.17417212D-03  0.23296928D-03  0.17582539D-03 -0.17428895D-03 -0.10959757D-03
 -0.17362096D-04  0.85131051D-04  0.53532690D-04  0.84804774D-05 -0.50415189D-03
 -0.31702424D-03 -0.50221966D-04 -0.13270114D-01 -0.12834277D-01 -0.39998834D-02
  0.10691195D-02 -0.14300337D-02 -0.10792678D-02  0.11999175D-02  0.75454034D-03
  0.11953187D-03 -0.15696981D-02 -0.98706826D-03 -0.15636820D-03  0.21552206D-04
  0.13552605D-04  0.21469604D-05  0.35019057D-02  0.33868908D-02  0.10555459D-02
  0.12823105D-04 -0.17151938D-04 -0.12944824D-04  0.93333287D-04  0.58690475D-04
  0.92975574D-05 -0.80837572D-04 -0.50832834D-04 -0.80527750D-05  0.10474405D-03
  0.65865872D-04  0.10434261D-04  0.92383897D+00  0.89349683D+00  0.27846393D+00
 -0.15251109D-02  0.20399590D-02  0.15395875D-02  0.16903056D-03  0.10629095D-03
  0.16838272D-04 -0.51917358D-03 -0.32647028D-03 -0.51718377D-04 -0.24993367D-03
 -0.15716500D-03 -0.24897576D-04 -0.15353277D-03 -0.14849022D-03 -0.46277914D-04
 -0.51912129D-05  0.69436666D-05  0.52404887D-05 -0.56312128D-05 -0.35410577D-05
 -0.56096304D-06 -0.10084531D-04 -0.63414239D-05 -0.10045881D-05 -0.12892602D-04
 -0.81072139D-05 -0.12843189D-05 -0.24044701D-03 -0.23254988D-03 -0.72475641D-04
 -0.41215496D-04 -0.39861833D-04 -0.12423192D-04  0.19501089D-03  0.18860604D-03
  0.58780264D-04 -0.65348411D-04 -0.63202138D-04 -0.19697346D-04  0.11029652D-04
  0.10667400D-04  0.33245625D-05 -0.14338142D-02 -0.13867227D-02 -0.43218089D-03
 -0.13751679D-02 -0.13300025D-02 -0.41450368D-03  0.11209859D-04  0.10841687D-04
  0.33788803D-05 -0.61301425D-05 -0.59288069D-05 -0.18477502D-05  0.53310624D-05
  0.51559715D-05  0.16068911D-05 -0.46665627D-03 -0.45132963D-03 -0.14065973D-03
MO    4     MO 0.0        OCC NO =    2.0000005  ORB. ENERGY =    0.000000
 -0.89038645D-02 -0.86114301D-02 -0.26838066D-02 -0.16692419D-02  0.22327459D-02
  0.16850867D-02  0.78281806D-01  0.49225701D-01  0.77981780D-02  0.43238053D-01
  0.27189248D-01  0.43072337D-02 -0.13574160D+00 -0.85357959D-01 -0.13522135D-01
  0.35752939D-04 -0.14098393D-04 -0.27844153D-04  0.16446274D-04  0.18746016D-03
  0.45048433D-04  0.14059891D-05  0.16025936D-04  0.38511827D-05 -0.12115897D-04
 -0.13810107D-03 -0.33186981D-04  0.13027912D+00  0.12600029D+00  0.39268788D-01
  0.17537070D-03 -0.23457247D-03 -0.17703535D-03 -0.27495522D-03 -0.17289922D-03
 -0.27390141D-04 -0.21355352D-02 -0.13428818D-02 -0.21273504D-03 -0.30361395D-03
 -0.19092060D-03 -0.30245031D-04  0.30834840D+01  0.29822115D+01  0.92942507D+00
 -0.25042849D-03  0.33496834D-03  0.25280560D-03  0.15677273D-01  0.98582899D-02
  0.15617188D-02 -0.29621489D-02 -0.18626787D-02 -0.29507961D-03 -0.39665669D-02
 -0.24942837D-02 -0.39513644D-03 -0.20554582D+01 -0.19879497D+01 -0.61955709D+00
  0.18463251D-02 -0.24696090D-02 -0.18638508D-02  0.87830018D-02  0.55229873D-02
  0.87493397D-03  0.10031045D-01  0.63077904D-02  0.99925997D-03  0.16610773D-03
  0.10445300D-03  0.16547110D-04 -0.16153182D-01 -0.15622654D-01 -0.48688990D-02
  0.80964227D-04 -0.10829619D-03 -0.81732754D-04 -0.80956446D-04 -0.50907586D-04
 -0.80646169D-05 -0.11682776D-03 -0.73464428D-04 -0.11638000D-04  0.20455623D-03
  0.12863045D-03  0.20377224D-04  0.15187261D-01  0.14688457D-01  0.45777506D-02
 -0.69396127D-04  0.92822926D-04  0.70054847D-04  0.15066538D-02  0.94742434D-03
  0.15008793D-03  0.41090146D-02  0.25838586D-02  0.40932662D-03 -0.45654627D-03
 -0.28708855D-03 -0.45479649D-04  0.25051375D-02  0.24228600D-02  0.75509963D-03
 -0.38296500D-04  0.51224663D-04  0.38660017D-04 -0.58865539D-04 -0.37016231D-04
 -0.58639928D-05  0.13236207D-04  0.83232823D-05  0.13185478D-05 -0.19351904D-04
 -0.12168996D-04 -0.19277735D-05  0.91611099D+00  0.88602266D+00  0.27613456D+00
 -0.13796008D-02  0.18453275D-02  0.13926962D-02  0.23938521D-02  0.15053184D-02
  0.23846773D-03 -0.11574337D-02 -0.72782535D-03 -0.11529976D-03 -0.45992896D-03
 -0.28921567D-03 -0.45816621D-04  0.32308868D-02  0.31247731D-02  0.97385528D-03
 -0.43575472D-05  0.58285714D-05  0.43989098D-05  0.17965472D-04  0.11297171D-04
  0.17896617D-05  0.13731344D-04  0.86346374D-05  0.13678716D-05  0.22958263D-04
  0.14436772D-04  0.22870272D-05  0.12548761D-04  0.12136616D-04  0.37824529D-05
  0.55731653D-04  0.53901228D-04  0.16798658D-04 -0.15232913D-04 -0.14732610D-04
 -0.45915110D-05 -0.52569873D-04 -0.50843292D-04 -0.15845633D-04 -0.89936847D-05
 -0.86983003D-05 -0.27108803D-05  0.91862207D-03  0.88845127D-03  0.27689145D-03
  0.10061131D-02  0.97306879D-03  0.30326304D-03 -0.38985950D-05 -0.37705513D-05
 -0.11751161D-05  0.72210472D-07  0.69838825D-07  0.21765711D-07 -0.13899282D-04
 -0.13442780D-04 -0.41895274D-05 -0.31031641D-03 -0.30012452D-03 -0.93535704D-04
MO    5     MO 0.0        OCC NO =    2.0000003  ORB. ENERGY =    0.000000
 -0.44661409D+01 -0.43194570D+01 -0.13461861D+01 -0.94629959D+00  0.12657522D+01
  0.95528203D+00  0.18610614D-01  0.11702854D-01  0.18539286D-02 -0.42255785D+01
 -0.26571571D+01 -0.42093833D+00 -0.55493127D+01 -0.34895567D+01 -0.55280441D+00
 -0.70896285D-02  0.27956407D-02  0.55213561D-02  0.97248811D-05  0.11084746D-03
  0.26637684D-04 -0.27836470D-03 -0.31728944D-02 -0.76247626D-03 -0.38335698D-03
 -0.43696317D-02 -0.10500634D-02  0.30977249D+00  0.29959847D+00  0.93371757D-01
 -0.38193100D-04  0.51086357D-04  0.38555636D-04 -0.14641829D-02 -0.92071753D-03
 -0.14585713D-03  0.52238748D-03  0.32849127D-03  0.52038536D-04  0.48365434D-03
  0.30413483D-03  0.48180066D-04 -0.42164730D-01 -0.40779891D-01 -0.12709311D-01
 -0.15799157D-05  0.21132649D-05  0.15949125D-05 -0.17994182D-03 -0.11315224D-03
 -0.17925216D-04  0.11028758D-03  0.69351788D-04  0.10986488D-04  0.78610396D-04
  0.49432327D-04  0.78309111D-05  0.26569019D-02  0.25696399D-02  0.80084451D-03
  0.33528591D-04 -0.44847199D-04 -0.33846850D-04 -0.60123102D-04 -0.37807020D-04
 -0.59892671D-05  0.16465892D-03  0.10354195D-03  0.16402784D-04 -0.62542363D-05
 -0.39328316D-05 -0.62302661D-06  0.54697503D-01  0.52901043D-01  0.16486945D-01
 -0.49401374D-04  0.66078328D-04  0.49870300D-04 -0.26429479D-03 -0.16619566D-03
 -0.26328184D-04  0.29763822D-03  0.18716290D-03  0.29649748D-04 -0.42799163D-04
 -0.26913262D-04 -0.42635129D-05  0.65138646D-01  0.62999262D-01  0.19634118D-01
 -0.24442667D-03  0.32694041D-03  0.24674681D-03  0.44569801D-04  0.28026687D-04
  0.44398981D-05 -0.24283687D-04 -0.15270234D-04 -0.24190616D-05 -0.45493271D-03
 -0.28607389D-03 -0.45318911D-04  0.21066923D+00  0.20375011D+00  0.63500009D-01
  0.85819543D-04 -0.11479057D-03 -0.86634157D-04 -0.19659088D-02 -0.12362162D-02
 -0.19583741D-03  0.67693574D-03  0.42567536D-03  0.67434128D-04  0.33519022D-02
  0.21077661D-02  0.33390556D-03  0.15572737D-01  0.15061273D-01  0.46939411D-02
  0.15178509D-04 -0.20302482D-04 -0.15322586D-04 -0.30965849D-03 -0.19472157D-03
 -0.30847168D-04  0.13225832D-03  0.83167582D-04  0.13175142D-04  0.81031761D-04
  0.50954946D-04  0.80721195D-05  0.15973606D+00  0.15448977D+00  0.48147712D-01
  0.21931132D-03 -0.29334661D-03 -0.22139307D-03  0.20596566D-02  0.12951673D-02
  0.20517627D-03  0.30532300D-02  0.19199530D-02  0.30415280D-03  0.15800330D-02
  0.99356714D-03  0.15739773D-03 -0.52561225D-04 -0.50834928D-04 -0.15843027D-04
 -0.67151164D-04 -0.64945682D-04 -0.20240732D-04 -0.55526992D-03 -0.53703289D-03
 -0.16736970D-03 -0.85960578D-04 -0.83137328D-04 -0.25910274D-04 -0.29117928D-03
 -0.28161593D-03 -0.87767384D-04  0.69871739D-05  0.67576904D-05  0.21060769D-05
  0.23782141D-05  0.23001051D-05  0.71684230D-06 -0.23560010D-03 -0.22786216D-03
 -0.71014682D-04  0.19400679D-04  0.18763492D-04  0.58477610D-05 -0.25442322D-03
 -0.24606706D-03 -0.76688355D-04 -0.97901325D-04 -0.94685899D-04 -0.29509459D-04
MO    6     MO 0.0        OCC NO =    2.0000003  ORB. ENERGY =    0.000000
  0.35109567D+00  0.33956445D+00  0.10582741D+00  0.74611467D-01 -0.99798864D-01
 -0.75319692D-01  0.33054433D-01  0.20785515D-01  0.32927747D-02  0.30071949D+00
  0.18910049D+00  0.29956694D-01  0.40384586D+00  0.25394911D+00  0.40229806D-01
  0.67252487D-03 -0.26519555D-03 -0.52375794D-03  0.81939920D-05  0.93397876D-04
  0.22444385D-04  0.18269740D-04  0.20824464D-03  0.50043137D-04  0.18086664D-04
  0.20615788D-03  0.49541670D-04  0.41611543D+01  0.40244873D+01  0.12542569D+01
 -0.66314717D-03  0.88701292D-03  0.66944188D-03 -0.19634811D-01 -0.12346896D-01
 -0.19559557D-02  0.64655211D-02  0.40656931D-02  0.64407410D-03  0.53311031D-02
  0.33523407D-02  0.53106708D-03 -0.52310289D+00 -0.50592234D+00 -0.15767389D+00
 -0.18917690D-04  0.25303939D-04  0.19097260D-04 -0.27749995D-02 -0.17449941D-02
 -0.27643639D-03  0.55182766D-03  0.34700404D-03  0.54971271D-04  0.64546557D-03
  0.40588607D-03  0.64299173D-04 -0.78942491D-01 -0.76349740D-01 -0.23794879D-01
  0.95571176D-04 -0.12783417D-03 -0.96478354D-04  0.27117225D-03  0.17052038D-03
  0.27013294D-04  0.26631060D-03  0.16746325D-03  0.26528992D-04  0.14530270D-04
  0.91370237D-05  0.14474581D-05  0.10250933D-01  0.99142560D-02  0.30898406D-02
 -0.44059801D-05  0.58933543D-05  0.44478024D-05 -0.13902678D-03 -0.87423772D-04
 -0.13849394D-04  0.75400247D-04  0.47413699D-04  0.75111265D-05 -0.12919790D-04
 -0.81243106D-05 -0.12870273D-05 -0.13966980D-01 -0.13508255D-01 -0.42099330D-02
  0.14012196D-03 -0.18742444D-03 -0.14145202D-03  0.60995316D-03  0.38355492D-03
  0.60761543D-04  0.33946035D-03  0.21346177D-03  0.33815932D-04 -0.19230109D-03
 -0.12092409D-03 -0.19156407D-04  0.12335013D+00  0.11929888D+00  0.37180250D-01
 -0.43723363D-03  0.58483530D-03  0.44138392D-03  0.67814520D-04  0.42643590D-04
  0.67554611D-05 -0.29084637D-03 -0.18289200D-03 -0.28973165D-04 -0.11274839D-03
 -0.70899212D-04 -0.11231626D-04  0.35930805D+00  0.34750711D+00  0.10830279D+00
 -0.37734676D-03  0.50473178D-03  0.38092860D-03 -0.36011849D-02 -0.22645217D-02
 -0.35873828D-03  0.28236875D-02  0.17756105D-02  0.28128653D-03  0.10752717D-02
  0.67615971D-03  0.10711506D-03 -0.11351945D-01 -0.10979107D-01 -0.34217079D-02
 -0.21971304D-04  0.29388395D-04  0.22179860D-04 -0.16125059D-03 -0.10139870D-03
 -0.16063257D-04 -0.23486397D-03 -0.14768877D-03 -0.23396382D-04 -0.13300052D-03
 -0.83634293D-04 -0.13249077D-04 -0.25445458D-04 -0.24609740D-04 -0.76697809D-05
 -0.11584052D-04 -0.11203591D-04 -0.34916698D-05 -0.24541009D-04 -0.23734995D-04
 -0.73971614D-05 -0.51393259D-03 -0.49705323D-03 -0.15490978D-03 -0.10137896D-03
 -0.98049314D-04 -0.30557688D-04  0.51579037D-04  0.49884999D-04  0.15546975D-04
  0.36385169D-04  0.35190152D-04  0.10967233D-04  0.15190926D-04  0.14692003D-04
  0.45788555D-05 -0.21801237D-05 -0.21085207D-05 -0.65713380D-06  0.18578267D-04
  0.17968091D-04  0.55998693D-05 -0.14009354D-02 -0.13549237D-02 -0.42227055D-03
MO    7     MO 0.0        OCC NO =    2.0000002  ORB. ENERGY =    0.000000
  0.36851695D-01  0.35641355D-01  0.11107854D-01  0.76952972D-02 -0.10293082D-01
 -0.77683423D-02 -0.32934150D-01 -0.20709877D-01 -0.32807925D-02  0.45914078D-01
  0.28872004D-01  0.45738106D-02  0.58155137D-01  0.36569511D-01  0.57932249D-02
  0.77482041D-04 -0.30553356D-04 -0.60342504D-04  0.17336078D-05  0.19760244D-04
  0.47485719D-05 -0.85311065D-06 -0.97240420D-05 -0.23367784D-05  0.76041710D-05
  0.86674898D-04  0.20828790D-04  0.74159540D+00  0.71723878D+00  0.22353200D+00
 -0.13305274D-02  0.17796879D-02  0.13431570D-02 -0.40326983D-02 -0.25358689D-02
 -0.40172424D-03  0.46535789D-02  0.29262953D-02  0.46357434D-03  0.12657629D-02
  0.79594569D-03  0.12609117D-03  0.19461001D+01  0.18821833D+01  0.58659432D+00
 -0.78286208D-03  0.10471413D-02  0.79029315D-03  0.84683889D-02  0.53251502D-02
  0.84359326D-03 -0.14537235D-02 -0.91414035D-03 -0.14481519D-03 -0.20359844D-02
 -0.12802816D-02 -0.20281812D-03  0.26998059D+00  0.26111347D+00  0.81377665D-01
 -0.20130707D-03  0.26926447D-03  0.20321791D-03 -0.79914222D-03 -0.50252207D-03
 -0.79607939D-04  0.11605712D-03  0.72979830D-04  0.11561231D-04 -0.14850029D-03
 -0.93380968D-04 -0.14793114D-04  0.52611351D-01  0.50883408D-01  0.15858136D-01
  0.41910442D-04 -0.56058602D-04 -0.42308263D-04  0.41377593D-03  0.26019341D-03
  0.41219007D-04 -0.89101190D-04 -0.56029219D-04 -0.88759697D-05  0.38140920D-03
  0.23984034D-03  0.37994739D-04  0.42950136D+00  0.41539502D+00  0.12946048D+00
 -0.20106864D-02  0.26894555D-02  0.20297722D-02 -0.34621534D-02 -0.21770949D-02
 -0.34488842D-03 -0.30972925D-02 -0.19476607D-02 -0.30854217D-03  0.56820488D-03
  0.35730248D-03  0.56602715D-04  0.30818454D-01  0.29806267D-01  0.92893115D-02
 -0.54735434D-04  0.73213064D-04  0.55254992D-04  0.75049818D-04  0.47193340D-04
  0.74762179D-05 -0.45921868D-04 -0.28876903D-04 -0.45745866D-05  0.13860586D-04
  0.87159084D-05  0.13807463D-05 -0.22882006D+01 -0.22130480D+01 -0.68971040D+00
  0.56951600D-02 -0.76177366D-02 -0.57492194D-02  0.42852543D-02  0.26946829D-02
  0.42688304D-03  0.50948185D-03  0.32037586D-03  0.50752918D-04 -0.10025252D-02
 -0.63041474D-03 -0.99868287D-04 -0.73325559D-02 -0.70917288D-02 -0.22101821D-02
  0.14995692D-04 -0.20057949D-04 -0.15138034D-04 -0.11814771D-04 -0.74294449D-05
 -0.11769489D-05 -0.39753227D-04 -0.24997896D-04 -0.39600867D-05 -0.13152613D-04
 -0.82707162D-05 -0.13102204D-05  0.67177543D-04  0.64971194D-04  0.20248683D-04
 -0.83928670D-05 -0.81172156D-05 -0.25297816D-05 -0.37072309D-03 -0.35854724D-03
 -0.11174351D-03  0.66297886D-05  0.64120429D-05  0.19983537D-05 -0.38239533D-04
 -0.36983611D-04 -0.11526176D-04 -0.17904872D-03 -0.17316813D-03 -0.53968942D-04
 -0.11691890D-03 -0.11307887D-03 -0.35241745D-04  0.14444760D-04  0.13970343D-04
  0.43539457D-05  0.45707485D-05  0.44206290D-05  0.13777170D-05  0.24891831D-05
  0.24074295D-05  0.75029062D-06  0.12195513D-03  0.11794969D-03  0.36759767D-04
MO    8     MO 0.0        OCC NO =    2.0000001  ORB. ENERGY =    0.000000
  0.27944663D+00  0.27026862D+00  0.84230924D-01  0.57015655D-01 -0.76263044D-01
 -0.57556857D-01 -0.93272152D+00 -0.58652032D+00 -0.92914673D-01  0.15130984D+01
  0.95147688D+00  0.15072992D+00 -0.69412043D+00 -0.43648155D+00 -0.69146011D-01
  0.12360784D-02 -0.48742060D-03 -0.96264970D-03 -0.91773651D-05 -0.10460669D-03
 -0.25137969D-04  0.12427879D-03  0.14165715D-02  0.34041540D-03 -0.13372549D-03
 -0.15242481D-02 -0.36629110D-03 -0.18707457D+00 -0.18093038D+00 -0.56388098D-01
  0.24937040D-03 -0.33355306D-03 -0.25173747D-03  0.57567643D-03  0.36200079D-03
  0.57347007D-04 -0.24445456D-03 -0.15371959D-03 -0.24351766D-04 -0.45635262D-03
 -0.28696677D-03 -0.45460358D-04 -0.18398786D+00 -0.17794505D+00 -0.55457700D-01
  0.12744475D-03 -0.17046765D-03 -0.12865448D-03 -0.33322118D-03 -0.20953842D-03
 -0.33194407D-04  0.83044919D-03  0.52220874D-03  0.82726637D-04  0.11175515D-03
  0.70274635D-04  0.11132683D-04 -0.36917617D-01 -0.35705112D-01 -0.11127724D-01
  0.43829344D-03 -0.58625289D-03 -0.44245380D-03 -0.55329898D-03 -0.34792924D-03
 -0.55117838D-04  0.16551750D-02  0.10408184D-02  0.16488313D-03 -0.28709685D-03
 -0.18053420D-03 -0.28599651D-04  0.19248987D+01  0.18616783D+01  0.58020380D+00
 -0.43191164D-02  0.57771671D-02  0.43601142D-02  0.87049339D-04  0.54738961D-04
  0.86715710D-05  0.11332537D-02  0.71262034D-03  0.11289104D-03  0.12360064D-02
  0.77723402D-03  0.12312693D-03  0.12730472D+01  0.12312358D+01  0.38372243D+00
 -0.25988918D-02  0.34762278D-02  0.26235610D-02 -0.13625520D-02 -0.85680928D-03
 -0.13573299D-03  0.25814163D-03  0.16232638D-03  0.25715226D-04 -0.18265516D-02
 -0.11485846D-02 -0.18195510D-03  0.12920277D+01  0.12495930D+01  0.38944355D+00
 -0.28000096D-02  0.37452390D-02  0.28265878D-02  0.14375530D-02  0.90397191D-03
  0.14320434D-03 -0.23432972D-02 -0.14735282D-02 -0.23343162D-03  0.57340229D-03
  0.36057075D-03  0.57120464D-04  0.21532803D+00  0.20825590D+00  0.64904268D-01
 -0.14139860D-03  0.18913205D-03  0.14274078D-03 -0.16137164D-02 -0.10147482D-02
 -0.16075316D-03 -0.12752865D-02 -0.80193437D-03 -0.12703988D-03  0.29655106D-03
  0.18647926D-03  0.29541448D-04 -0.12849413D+00 -0.12427393D+00 -0.38730756D-01
  0.31664545D-03 -0.42353887D-03 -0.31965110D-03  0.10899793D-03  0.68540824D-04
  0.10858018D-04 -0.55098198D-03 -0.34647225D-03 -0.54887026D-04  0.23939922D-04
  0.15054065D-04  0.23848169D-05 -0.15835532D-02 -0.15315437D-02 -0.47731526D-03
 -0.16306675D-02 -0.15771106D-02 -0.49151649D-03 -0.12016985D-02 -0.11622305D-02
 -0.36221648D-03 -0.10409799D-02 -0.10067904D-02 -0.31377260D-03 -0.10196560D-02
 -0.98616692D-03 -0.30734515D-03 -0.12141921D-03 -0.11743137D-03 -0.36598230D-04
 -0.10975794D-03 -0.10615310D-03 -0.33083285D-04  0.18211593D-03  0.17613460D-03
  0.54893462D-04  0.87814450D-04  0.84930313D-04  0.26469069D-04  0.39137025D-04
  0.37851627D-04  0.11796699D-04  0.15851462D-04  0.15330844D-04  0.47779544D-05
MO    9     MO 0.0        OCC NO =    2.0000001  ORB. ENERGY =    0.000000