 opt methionine m062x
GAUSSIAN             40 MOL ORBITALS    180 PRIMITIVES       20 NUCLEI
  S    1    (CENTRE  1)   3.97974779 -1.24959599 -0.95089365  CHARGE = 16.0
  O    2    (CENTRE  2)  -2.76941719 -3.26384029 -0.45909172  CHARGE =  8.0
  O    3    (CENTRE  3)  -6.01901157 -0.39211723  0.17768052  CHARGE =  8.0
  N    4    (CENTRE  4)  -2.81418185  3.84503686 -0.76661379  CHARGE =  7.0
  C    5    (CENTRE  5)   0.14395726  1.22928925  1.83379155  CHARGE =  6.0
  C    6    (CENTRE  6)  -1.65652970  1.26846157 -0.49004018  CHARGE =  6.0
  C    7    (CENTRE  7)   1.93057465 -1.09613211  1.79025012  CHARGE =  6.0
  C    8    (CENTRE  8)  -3.74957500 -0.80742659 -0.21907069  CHARGE =  6.0
  C    9    (CENTRE  9)   5.98487068  1.40673941 -0.18066823  CHARGE =  6.0
  H   10    (CENTRE 10)   1.23748823  2.99210859  1.80442950  CHARGE =  1.0
  H   11    (CENTRE 11)  -0.97296570  1.21692756  3.58540469  CHARGE =  1.0
  H   12    (CENTRE 12)  -0.51513156  0.84878584 -2.18603099  CHARGE =  1.0
  H   13    (CENTRE 13)   0.75680728 -2.80778088  1.74202432  CHARGE =  1.0
  H   14    (CENTRE 14)   3.04810880 -1.12161100  3.54147195  CHARGE =  1.0
  H   15    (CENTRE 15)  -4.18891672  3.92315400  0.67717100  CHARGE =  1.0
  H   16    (CENTRE 16)  -3.94510234  3.72777238 -2.40391110  CHARGE =  1.0
  H   17    (CENTRE 17)   4.98391872  3.21819252 -0.29431662  CHARGE =  1.0
  H   18    (CENTRE 18)   7.54509400  1.45733505 -1.53917841  CHARGE =  1.0
  H   19    (CENTRE 19)   6.79119094  1.23014344  1.72105166  CHARGE =  1.0
  H   20    (CENTRE 20)  -4.32954059 -4.36467871 -0.22180693  CHARGE =  1.0
CENTRE ASSIGNMENTS    1  1  1  1  1  1  1  1  1  1  1  1  1  1  1  1  1  1  1  1
CENTRE ASSIGNMENTS    1  1  1  1  1  1  1  2  2  2  2  2  2  2  2  2  2  2  2  2
CENTRE ASSIGNMENTS    2  2  3  3  3  3  3  3  3  3  3  3  3  3  3  3  3  4  4  4
CENTRE ASSIGNMENTS    4  4  4  4  4  4  4  4  4  4  4  4  5  5  5  5  5  5  5  5
CENTRE ASSIGNMENTS    5  5  5  5  5  5  5  6  6  6  6  6  6  6  6  6  6  6  6  6
CENTRE ASSIGNMENTS    6  6  7  7  7  7  7  7  7  7  7  7  7  7  7  7  7  8  8  8
CENTRE ASSIGNMENTS    8  8  8  8  8  8  8  8  8  8  8  8  9  9  9  9  9  9  9  9
CENTRE ASSIGNMENTS    9  9  9  9  9  9  9 10 10 10 11 11 11 12 12 12 13 13 13 14
CENTRE ASSIGNMENTS   14 14 15 15 15 16 16 16 17 17 17 18 18 18 19 19 19 20 20 20
TYPE ASSIGNMENTS      1  1  1  1  1  1  2  2  2  3  3  3  4  4  4  1  1  1  2  2
TYPE ASSIGNMENTS      2  3  3  3  4  4  4  1  1  1  1  1  1  2  2  2  3  3  3  4
TYPE ASSIGNMENTS      4  4  1  1  1  1  1  1  2  2  2  3  3  3  4  4  4  1  1  1
TYPE ASSIGNMENTS      1  1  1  2  2  2  3  3  3  4  4  4  1  1  1  1  1  1  2  2
TYPE ASSIGNMENTS      2  3  3  3  4  4  4  1  1  1  1  1  1  2  2  2  3  3  3  4
TYPE ASSIGNMENTS      4  4  1  1  1  1  1  1  2  2  2  3  3  3  4  4  4  1  1  1
TYPE ASSIGNMENTS      1  1  1  2  2  2  3  3  3  4  4  4  1  1  1  1  1  1  2  2
TYPE ASSIGNMENTS      2  3  3  3  4  4  4  1  1  1  1  1  1  1  1  1  1  1  1  1
TYPE ASSIGNMENTS      1  1  1  1  1  1  1  1  1  1  1  1  1  1  1  1  1  1  1  1
EXPONENTS  0.5331257D+03 0.9710952D+02 0.2628163D+02 0.3332975D+02 0.7745118D+01
EXPONENTS  0.2518953D+01 0.3332975D+02 0.7745118D+01 0.2518953D+01 0.3332975D+02
EXPONENTS  0.7745118D+01 0.2518953D+01 0.3332975D+02 0.7745118D+01 0.2518953D+01
EXPONENTS  0.2029194D+01 0.5661401D+00 0.2215834D+00 0.2029194D+01 0.5661401D+00
EXPONENTS  0.2215834D+00 0.2029194D+01 0.5661401D+00 0.2215834D+00 0.2029194D+01
EXPONENTS  0.5661401D+00 0.2215834D+00 0.1307093D+03 0.2380887D+02 0.6443608D+01
EXPONENTS  0.5033151D+01 0.1169596D+01 0.3803890D+00 0.5033151D+01 0.1169596D+01
EXPONENTS  0.3803890D+00 0.5033151D+01 0.1169596D+01 0.3803890D+00 0.5033151D+01
EXPONENTS  0.1169596D+01 0.3803890D+00 0.1307093D+03 0.2380887D+02 0.6443608D+01
EXPONENTS  0.5033151D+01 0.1169596D+01 0.3803890D+00 0.5033151D+01 0.1169596D+01
EXPONENTS  0.3803890D+00 0.5033151D+01 0.1169596D+01 0.3803890D+00 0.5033151D+01
EXPONENTS  0.1169596D+01 0.3803890D+00 0.9910617D+02 0.1805231D+02 0.4885660D+01
EXPONENTS  0.3780456D+01 0.8784966D+00 0.2857144D+00 0.3780456D+01 0.8784966D+00
EXPONENTS  0.2857144D+00 0.3780456D+01 0.8784966D+00 0.2857144D+00 0.3780456D+01
EXPONENTS  0.8784966D+00 0.2857144D+00 0.7161684D+02 0.1304510D+02 0.3530512D+01
EXPONENTS  0.2941249D+01 0.6834831D+00 0.2222899D+00 0.2941249D+01 0.6834831D+00
EXPONENTS  0.2222899D+00 0.2941249D+01 0.6834831D+00 0.2222899D+00 0.2941249D+01
EXPONENTS  0.6834831D+00 0.2222899D+00 0.7161684D+02 0.1304510D+02 0.3530512D+01
EXPONENTS  0.2941249D+01 0.6834831D+00 0.2222899D+00 0.2941249D+01 0.6834831D+00
EXPONENTS  0.2222899D+00 0.2941249D+01 0.6834831D+00 0.2222899D+00 0.2941249D+01
EXPONENTS  0.6834831D+00 0.2222899D+00 0.7161684D+02 0.1304510D+02 0.3530512D+01
EXPONENTS  0.2941249D+01 0.6834831D+00 0.2222899D+00 0.2941249D+01 0.6834831D+00
EXPONENTS  0.2222899D+00 0.2941249D+01 0.6834831D+00 0.2222899D+00 0.2941249D+01
EXPONENTS  0.6834831D+00 0.2222899D+00 0.7161684D+02 0.1304510D+02 0.3530512D+01
EXPONENTS  0.2941249D+01 0.6834831D+00 0.2222899D+00 0.2941249D+01 0.6834831D+00
EXPONENTS  0.2222899D+00 0.2941249D+01 0.6834831D+00 0.2222899D+00 0.2941249D+01
EXPONENTS  0.6834831D+00 0.2222899D+00 0.7161684D+02 0.1304510D+02 0.3530512D+01
EXPONENTS  0.2941249D+01 0.6834831D+00 0.2222899D+00 0.2941249D+01 0.6834831D+00
EXPONENTS  0.2222899D+00 0.2941249D+01 0.6834831D+00 0.2222899D+00 0.2941249D+01
EXPONENTS  0.6834831D+00 0.2222899D+00 0.3425251D+01 0.6239137D+00 0.1688554D+00
EXPONENTS  0.3425251D+01 0.6239137D+00 0.1688554D+00 0.3425251D+01 0.6239137D+00
EXPONENTS  0.1688554D+00 0.3425251D+01 0.6239137D+00 0.1688554D+00 0.3425251D+01
EXPONENTS  0.6239137D+00 0.1688554D+00 0.3425251D+01 0.6239137D+00 0.1688554D+00
EXPONENTS  0.3425251D+01 0.6239137D+00 0.1688554D+00 0.3425251D+01 0.6239137D+00
EXPONENTS  0.1688554D+00 0.3425251D+01 0.6239137D+00 0.1688554D+00 0.3425251D+01
EXPONENTS  0.6239137D+00 0.1688554D+00 0.3425251D+01 0.6239137D+00 0.1688554D+00
MO    1     MO 0.0        OCC NO =    2.0000000  ORB. ENERGY =  -88.763791
  0.12132244D+02  0.11733778D+02  0.36569062D+01 -0.16895991D-01  0.22599753D-01
  0.17056371D-01 -0.44374183D-04 -0.27903677D-04 -0.44204112D-05  0.22963158D-02
  0.14439850D-02  0.22875148D-03  0.27731802D-02  0.17438501D-02  0.27625515D-03
  0.70362796D-03 -0.27746037D-03 -0.54798082D-03  0.18398044D-06  0.20970708D-05
  0.50394578D-06 -0.94785901D-05 -0.10804016D-03 -0.25963062D-04 -0.11546557D-04
 -0.13161154D-03 -0.31627486D-04  0.69796301D-06  0.67503943D-06  0.21038031D-06
  0.17160754D-06 -0.22953895D-06 -0.17323647D-06 -0.22577303D-05 -0.14197214D-05
 -0.22490772D-06 -0.57458465D-06 -0.36131425D-06 -0.57238248D-07 -0.17205610D-06
 -0.10819349D-06 -0.17139667D-07  0.21797814D-06  0.21081896D-06  0.65703063D-07
  0.13968290D-06 -0.18683716D-06 -0.14100879D-06 -0.67342496D-06 -0.42346768D-06
 -0.67084396D-07 -0.26688464D-06 -0.16782423D-06 -0.26586177D-07  0.73156649D-07
  0.46002864D-07  0.72876266D-08 -0.12869369D-05 -0.12446693D-05 -0.38790907D-06
 -0.75424870D-06  0.10088686D-05  0.76140816D-06 -0.91306631D-06 -0.57416060D-06
 -0.90956685D-07 -0.35096425D-05 -0.22069574D-05 -0.34961912D-06 -0.30470447D-06
 -0.19160635D-06 -0.30353665D-07 -0.33762021D-05 -0.32653157D-05 -0.10176563D-05
  0.20141740D-05 -0.26941204D-05 -0.20332928D-05 -0.13664062D-05 -0.85923286D-06
 -0.13611692D-06 -0.20319931D-05 -0.12777718D-05 -0.20242052D-06 -0.25495383D-05
 -0.16032181D-05 -0.25397669D-06  0.10292742D-04  0.99546923D-05  0.31024428D-05
  0.63329516D-05 -0.84708344D-05 -0.63930651D-05 -0.47634959D-05 -0.29954140D-05
 -0.47452391D-06  0.28115460D-05  0.17679756D-05  0.28007704D-06  0.22897389D-04
  0.14398492D-04  0.22809631D-05 -0.18901410D-03 -0.18280621D-03 -0.56972710D-04
 -0.78314217D-04  0.10475159D-03  0.79057589D-04  0.24051350D-03  0.15124134D-03
  0.23959170D-04 -0.12222704D-04 -0.76859640D-05 -0.12175858D-05 -0.31315651D-03
 -0.19692122D-03 -0.31195630D-04  0.15194452D-06  0.14695413D-06  0.45799182D-07
 -0.20704643D-06  0.27694133D-06  0.20901175D-06 -0.42666998D-06 -0.26830153D-06
 -0.42503471D-07  0.20387965D-05  0.12820499D-05  0.20309825D-06 -0.30553759D-06
 -0.19213024D-06 -0.30436657D-07 -0.18938868D-03 -0.18316849D-03 -0.57085617D-04
 -0.78766597D-04  0.10535669D-03  0.79514264D-04 -0.23630285D-03 -0.14859357D-03
 -0.23539719D-04 -0.30967379D-03 -0.19473119D-03 -0.30848692D-04 -0.84696030D-04
 -0.53259136D-04 -0.84371420D-05  0.18343076D-05  0.17740625D-05  0.55289778D-06
  0.34139439D-05  0.33018179D-05  0.10290324D-05  0.25880243D-04  0.25030245D-04
  0.78008339D-05  0.93579296D-06  0.90505821D-06  0.28206711D-06 -0.61855385D-06
 -0.59823835D-06 -0.18644476D-06 -0.31303662D-06 -0.30275539D-06 -0.94355631D-07
 -0.55615149D-06 -0.53788551D-06 -0.16763542D-06  0.59869905D-06  0.57903566D-06
  0.18046012D-06  0.80370853D-06  0.77731190D-06  0.24225417D-06 -0.38518262D-06
 -0.37253186D-06 -0.11610191D-06 -0.30303278D-07 -0.29308011D-07 -0.91340270D-08
MO    2     MO 0.0        OCC NO =    2.0000000  ORB. ENERGY =  -19.432059
  0.47998701D-05  0.46422254D-05  0.14467789D-05  0.11966918D-05 -0.16006719D-05
 -0.12080510D-05  0.11650964D-04  0.73264391D-05  0.11606310D-05 -0.79781428D-06
 -0.50168703D-06 -0.79475655D-07 -0.29822622D-06 -0.18753265D-06 -0.29708323D-07
 -0.20397585D-05  0.80433437D-06  0.15885505D-05 -0.12677934D-06 -0.14450735D-05
 -0.34726470D-06  0.27859492D-07  0.31755186D-06  0.76310688D-07 -0.42918998D-07
 -0.48920517D-06 -0.11756059D-06  0.42264837D+01  0.40876711D+01  0.12739485D+01
 -0.63849077D-02  0.85403299D-02  0.64455144D-02 -0.64302383D-02 -0.40435064D-02
 -0.64055935D-03  0.23372281D-02  0.14697118D-02  0.23282704D-03  0.12333456D-02
  0.77556082D-03  0.12286186D-03  0.37822127D-02  0.36579915D-02  0.11400362D-02
 -0.57471970D-04  0.76873402D-04  0.58017503D-04 -0.33843855D-04 -0.21281924D-04
 -0.33714144D-05 -0.10507659D-02 -0.66074980D-03 -0.10467387D-03 -0.26553726D-04
 -0.16697695D-04 -0.26451955D-05  0.65675729D-05  0.63518706D-05  0.19796006D-05
 -0.21024793D-05  0.28122359D-05  0.21224364D-05  0.46340861D-04  0.29140377D-04
  0.46163253D-05  0.51630611D-04  0.32466713D-04  0.51432729D-05  0.67236583D-05
  0.42280167D-05  0.66978889D-06 -0.18916385D-04 -0.18295104D-04 -0.57017848D-05
 -0.29738741D-05  0.39777969D-05  0.30021027D-05 -0.25105574D-04 -0.15787058D-04
 -0.25009353D-05 -0.18681522D-04 -0.11747442D-04 -0.18609922D-05  0.95293442D-05
  0.59923073D-05  0.94928216D-06 -0.57921668D-04 -0.56019315D-04 -0.17458774D-04
 -0.45090495D-04  0.60312179D-04  0.45518501D-04  0.47381760D-04  0.29794922D-04
  0.47200163D-05 -0.27233312D-03 -0.17125037D-03 -0.27128936D-04 -0.55395349D-04
 -0.34834082D-04 -0.55183038D-05 -0.74840365D-04 -0.72382343D-04 -0.22558415D-04
 -0.47396494D-04  0.63396640D-04  0.47846390D-04 -0.74835778D-04 -0.47058745D-04
 -0.74548959D-05 -0.18082153D-03 -0.11370543D-03 -0.18012850D-04  0.43559592D-04
  0.27391440D-04  0.43392643D-05  0.14566857D-02  0.14088430D-02  0.43907483D-03
  0.72696224D-03 -0.97237073D-03 -0.73386269D-03 -0.15925132D-02 -0.10014150D-02
 -0.15864096D-03  0.37237163D-02  0.23415727D-02  0.37094446D-03  0.38605339D-03
  0.24276073D-03  0.38457378D-04 -0.68919313D-06 -0.66655759D-06 -0.20773689D-06
 -0.11913439D-06  0.15935187D-06  0.12026524D-06 -0.25103674D-05 -0.15785864D-05
 -0.25007460D-06 -0.37442176D-06 -0.23544645D-06 -0.37298673D-07  0.15814755D-05
  0.99447424D-06  0.15754143D-06  0.40230886D-05  0.38909561D-05  0.12126411D-05
  0.34633608D-05  0.33496118D-05  0.10439277D-05 -0.30640720D-04 -0.29634370D-04
 -0.92357388D-05 -0.19234429D-03 -0.18602702D-03 -0.57976497D-04 -0.84022071D-05
 -0.81262489D-05 -0.25325968D-05 -0.17451731D-04 -0.16878554D-04 -0.52603081D-05
 -0.43553689D-05 -0.42123232D-05 -0.13127971D-05  0.18864975D-06  0.18245383D-06
  0.56862888D-07  0.27484881D-06  0.26582180D-06  0.82845046D-07  0.28587765D-06
  0.27648842D-06  0.86169364D-07 -0.16126119D-02 -0.15596480D-02 -0.48607417D-03
MO    3     MO 0.0        OCC NO =    2.0000000  ORB. ENERGY =  -19.377749
  0.13997573D-05  0.13537843D-05  0.42191544D-06  0.35934640D-06 -0.48065484D-06
 -0.36275738D-06  0.77245795D-05  0.48574229D-05  0.76949740D-06 -0.80572121D-05
 -0.50665912D-05 -0.80263317D-06 -0.28886102D-05 -0.18164356D-05 -0.28775391D-06
 -0.63167151D-06  0.24908591D-06  0.49194162D-06 -0.88836852D-07 -0.10125923D-05
 -0.24333542D-06  0.72960623D-07  0.83162971D-06  0.19984841D-06  0.27732547D-07
  0.31610490D-06  0.75962969D-07 -0.41157494D-02 -0.39805736D-02 -0.12405709D-02
 -0.64307221D-04  0.86016103D-04  0.64917636D-04 -0.86378397D-03 -0.54317054D-03
 -0.86047339D-04 -0.10750177D-03 -0.67599998D-04 -0.10708975D-04  0.14468251D-03
  0.90980248D-04  0.14412800D-04  0.42267519D+01  0.40879304D+01  0.12740294D+01
 -0.64161995D-02  0.85821852D-02  0.64771032D-02  0.93284945D-02  0.58660077D-02
  0.92927417D-03 -0.17397403D-02 -0.10939954D-02 -0.17330725D-03 -0.16282765D-02
 -0.10239040D-02 -0.16220359D-03 -0.34781062D-04 -0.33638729D-04 -0.10483722D-04
 -0.13689105D-04  0.18310284D-04  0.13819045D-04 -0.15636470D-03 -0.98326319D-04
 -0.15576541D-04  0.56649510D-04  0.35622732D-04  0.56432392D-05  0.44409139D-04
  0.27925659D-04  0.44238935D-05 -0.89436915D-05 -0.86499491D-05 -0.26958113D-05
 -0.18549606D-05  0.24811597D-05  0.18725682D-05 -0.74469909D-05 -0.46828677D-05
 -0.74184492D-06 -0.57322348D-05 -0.36045830D-05 -0.57102651D-06 -0.30251194D-04
 -0.19022763D-04 -0.30135252D-05 -0.54806849D-04 -0.53006798D-04 -0.16519904D-04
 -0.24140951D-04  0.32290472D-04  0.24370101D-04 -0.35335267D-03 -0.22219764D-03
 -0.35199839D-04  0.22448941D-03  0.14116496D-03  0.22362902D-04  0.59176591D-04
  0.37211828D-04  0.58949788D-05  0.62052530D-05  0.60014505D-05  0.18703900D-05
  0.11600047D-05 -0.15516000D-05 -0.11710157D-05  0.17331127D-04  0.10898277D-04
  0.17264703D-05 -0.11876995D-05 -0.74685735D-06 -0.11831475D-06  0.10103032D-04
  0.63530578D-05  0.10064311D-05  0.16481154D-02  0.15939855D-02  0.49677565D-03
  0.11907667D-02 -0.15927466D-02 -0.12020696D-02  0.56878412D-02  0.35766672D-02
  0.56660417D-03 -0.10150808D-02 -0.63831003D-03 -0.10111903D-03 -0.99378500D-03
 -0.62491868D-03 -0.98997618D-04  0.35026655D-06  0.33876256D-06  0.10557749D-06
  0.16272499D-06 -0.21765782D-06 -0.16426960D-06  0.48401423D-06  0.30436114D-06
  0.48215918D-07  0.10208685D-06  0.64194950D-07  0.10169559D-07 -0.85593831D-07
 -0.53823698D-07 -0.85265780D-08  0.21869155D-06  0.21150895D-06  0.65918101D-07
  0.14914485D-04  0.14424640D-04  0.44955303D-05  0.85925250D-05  0.83103161D-05
  0.25899625D-05 -0.45164934D-05 -0.43681558D-05 -0.13613634D-05 -0.16481206D-05
 -0.15939905D-05 -0.49677722D-06 -0.70922850D-04 -0.68593493D-04 -0.21377596D-04
 -0.15072303D-04 -0.14577275D-04 -0.45430999D-05  0.23327940D-06  0.22561768D-06
  0.70315175D-07  0.43475905D-08  0.42048003D-08  0.13104526D-08  0.46742917D-08
  0.45207714D-08  0.14089270D-08 -0.37639055D-04 -0.36402855D-04 -0.11345180D-04
MO    4     MO 0.0        OCC NO =    2.0000000  ORB. ENERGY =  -14.544948
 -0.90030353D-05 -0.87073438D-05 -0.27136987D-05 -0.27920671D-05  0.37346154D-05
  0.28185699D-05 -0.72890582D-04 -0.45835554D-04 -0.72611219D-05  0.20765963D-04
  0.13058195D-04  0.20686374D-05 -0.31907329D-04 -0.20064185D-04 -0.31785040D-05
  0.30920466D-05 -0.12192813D-05 -0.24080655D-05  0.65169103D-06  0.74281935D-05
  0.17850645D-05 -0.21861919D-06 -0.24918950D-05 -0.59882573D-06  0.35575226D-06
  0.40549838D-05  0.97445061D-06  0.26379002D-04  0.25512622D-04  0.79511700D-05
  0.49106215D-05 -0.65683530D-05 -0.49572340D-05 -0.79135513D-04 -0.49762534D-04
 -0.78832214D-05 -0.52423675D-04 -0.32965414D-04 -0.52222754D-05  0.10970305D-04
  0.68984220D-05  0.10928259D-05 -0.83106757D-04 -0.80377237D-04 -0.25050074D-04
 -0.13531453D-04  0.18099412D-04  0.13659896D-04 -0.62993378D-04 -0.39611927D-04
 -0.62751947D-05  0.19556608D-03  0.12297720D-03  0.19481654D-04  0.40338122D-04
  0.25365694D-04  0.40183520D-05  0.34310561D+01  0.33183681D+01  0.10341904D+01
 -0.62904190D-02  0.84139436D-02  0.63501287D-02 -0.43973928D-02 -0.27651986D-02
 -0.43805391D-03 -0.45848890D-02 -0.28831013D-02 -0.45673168D-03 -0.37857983D-04
 -0.23806116D-04 -0.37712887D-05 -0.27632823D-04 -0.26725263D-04 -0.83290971D-05
 -0.51281925D-04  0.68593717D-04  0.51768701D-04 -0.75647844D-04 -0.47569395D-04
 -0.75357913D-05  0.14123289D-03  0.88811031D-04  0.14069159D-04 -0.98598622D-04
 -0.62001459D-04 -0.98220728D-05  0.14696668D-02  0.14213977D-02  0.44298758D-03
  0.86995619D-03 -0.11636367D-02 -0.87821397D-03  0.17472933D-02  0.10987449D-02
  0.17405966D-03 -0.36777141D-02 -0.23126453D-02 -0.36636187D-03  0.41821730D-03
  0.26298626D-03  0.41661442D-04  0.21557918D-04  0.20849880D-04  0.64979968D-05
  0.72943596D-05 -0.97567952D-05 -0.73635989D-05  0.60772228D-04  0.38215208D-04
  0.60539310D-05 -0.11723074D-04 -0.73717837D-05 -0.11678144D-05  0.55902077D-04
  0.35152726D-04  0.55687824D-05 -0.58499297D-04 -0.56577973D-04 -0.17632883D-04
 -0.62616090D-04  0.83754079D-04  0.63210453D-04 -0.24291961D-04 -0.15275437D-04
 -0.24198859D-05  0.27936847D-03  0.17567439D-03  0.27829775D-04 -0.24183469D-04
 -0.15207214D-04 -0.24090783D-05  0.61620821D-06  0.59596976D-06  0.18573774D-06
  0.84070476D-06 -0.11245105D-05 -0.84868488D-06 -0.31594320D-05 -0.19867356D-05
 -0.31473230D-06 -0.22632867D-05 -0.14232154D-05 -0.22546123D-06  0.15068339D-05
  0.94753760D-06  0.15010588D-06 -0.62595866D-04 -0.60539997D-04 -0.18867673D-04
  0.24370509D-04  0.23570096D-04  0.73457693D-05  0.93461035D-04  0.90391444D-04
  0.28171065D-04 -0.53896027D-05 -0.52125891D-05 -0.16245363D-05 -0.59368035D-05
 -0.57418178D-05 -0.17894738D-05 -0.19612172D-02 -0.18968039D-02 -0.59115092D-03
 -0.19625545D-02 -0.18980973D-02 -0.59155402D-03  0.43780196D-05  0.42342300D-05
  0.13196245D-05  0.45855237D-06  0.44349189D-06  0.13821705D-06  0.38814250D-06
  0.37539453D-06  0.11699408D-06 -0.18220995D-05 -0.17622553D-05 -0.54921801D-06
MO    5     MO 0.0        OCC NO =    2.0000000  ORB. ENERGY =  -10.482753
  0.22570145D-05  0.21828862D-05  0.68031028D-06  0.10511998D-05 -0.14060647D-05
 -0.10611780D-05  0.51501319D-04  0.32385412D-04  0.51303933D-05  0.84071013D-05
  0.52866109D-05  0.83748798D-06  0.25136863D-04  0.15806734D-04  0.25040523D-05
 -0.11521945D-05  0.45434282D-06  0.89732150D-06 -0.52084387D-06 -0.59367536D-05
 -0.14266575D-05 -0.10536271D-06 -0.12009596D-05 -0.28860185D-06 -0.33765230D-06
 -0.38486744D-05 -0.92487253D-06  0.21568302D-02  0.20859922D-02  0.65011266D-03
  0.11685873D-02 -0.15630800D-02 -0.11796798D-02  0.16023757D-02  0.10076168D-02
  0.15962344D-03 -0.53929251D-02 -0.33912161D-02 -0.53722560D-03 -0.41673026D-03
 -0.26205117D-03 -0.41513308D-04  0.16922598D-02  0.16366800D-02  0.51008166D-03
  0.16282922D-02 -0.21779723D-02 -0.16437482D-02 -0.42750666D-02 -0.26882766D-02
 -0.42586818D-03  0.90941808D-03  0.57186649D-03  0.90593260D-04  0.74256529D-03
  0.46694498D-03  0.73971930D-04 -0.10554217D-03 -0.10207579D-03 -0.31812565D-04
 -0.99648680D-04  0.13328816D-03  0.10059456D-03 -0.41348028D-04 -0.26000750D-04
 -0.41189556D-05 -0.71024954D-04 -0.44662397D-04 -0.70752741D-05  0.32870404D-04
  0.20669792D-04  0.32744423D-05 -0.93775255D-03 -0.90695344D-03 -0.28265777D-03
 -0.27442621D-04  0.36706723D-04  0.27703112D-04  0.89164503D-04  0.56069032D-04
  0.88822767D-05  0.22472514D-03  0.14131320D-03  0.22386385D-04  0.36306265D-04
  0.22830354D-04  0.36167116D-05 -0.15314860D-01 -0.14811865D-01 -0.46162115D-02
  0.96930627D-03 -0.12965254D-02 -0.97850710D-03  0.29590574D-02  0.18607347D-02
  0.29477164D-03  0.26557924D-02  0.16700335D-02  0.26456136D-03 -0.37526186D-03
 -0.23597473D-03 -0.37382362D-04  0.13119495D-03  0.12688605D-03  0.39544838D-04
 -0.25944230D-04  0.34702504D-04  0.26190497D-04 -0.14046557D-04 -0.88328522D-05
 -0.13992722D-05 -0.59567300D-04 -0.37457517D-04 -0.59339000D-05  0.11664975D-04
  0.73352494D-05  0.11620267D-05  0.26861710D+01  0.25979476D+01  0.80966680D+00
 -0.55209575D-02  0.73847266D-02  0.55733633D-02 -0.72668122D-03 -0.45695665D-03
 -0.72389611D-04  0.14171541D-04  0.89114451D-05  0.14117226D-05  0.16218457D-03
  0.10198601D-03  0.16156298D-04  0.22344735D-05  0.21610855D-05  0.67351595D-06
 -0.34943379D-06  0.46739592D-06  0.35275067D-06  0.34887130D-06  0.21937963D-06
  0.34753420D-07 -0.13255383D-05 -0.83353403D-06 -0.13204579D-06  0.31593739D-06
  0.19866991D-06  0.31472652D-07 -0.48633517D-04 -0.47036220D-04 -0.14659135D-04
 -0.96836845D-04 -0.93656381D-04 -0.29188603D-04 -0.21644156D-04 -0.20933285D-04
 -0.65239907D-05 -0.93508223D-04 -0.90437082D-04 -0.28185288D-04 -0.30616175D-05
 -0.29610631D-05 -0.92283404D-06 -0.12921950D-03 -0.12497547D-03 -0.38949396D-04
 -0.98085154D-04 -0.94863691D-04 -0.29564869D-04  0.36753028D-06  0.35545929D-06
  0.11078113D-06 -0.81734486D-07 -0.79050036D-07 -0.24636444D-07  0.48105060D-08
  0.46525120D-08  0.14499848D-08 -0.43976045D-03 -0.42531716D-03 -0.13255278D-03
MO    6     MO 0.0        OCC NO =    2.0000000  ORB. ENERGY =  -10.422600
  0.41819286D-04  0.40445793D-04  0.12605187D-04  0.10493294D-04 -0.14035629D-04
 -0.10592898D-04  0.32105059D-03  0.20188523D-03  0.31982012D-04 -0.21349719D-03
 -0.13425276D-03 -0.21267893D-04  0.18828133D-03  0.11839635D-03  0.18755971D-04
 -0.42897938D-04  0.16915868D-04  0.33408632D-04 -0.44161038D-05 -0.50336236D-04
 -0.12096269D-04  0.27373893D-05  0.31201684D-04  0.74980570D-05 -0.20984146D-05
 -0.23918435D-04 -0.57478242D-05 -0.48337810D-04 -0.46750226D-04 -0.14570003D-04
 -0.55556518D-04  0.74311331D-04  0.56083870D-04 -0.14475079D-04 -0.91023183D-05
 -0.14419602D-05  0.16816245D-03  0.10574506D-03  0.16751795D-04 -0.23375452D-04
 -0.14699112D-04 -0.23285862D-05 -0.88430286D-04 -0.85525923D-04 -0.26654695D-04
 -0.38100434D-04  0.50962408D-04  0.38462090D-04  0.24976161D-03  0.15705680D-03
  0.24880437D-04  0.44789376D-03  0.28164762D-03  0.44617714D-04 -0.38583950D-04
 -0.24262623D-04 -0.38436072D-05  0.22398532D-02  0.21662885D-02  0.67513751D-03
  0.10661305D-02 -0.14260357D-02 -0.10762504D-02 -0.23411794D-02 -0.14721964D-02
 -0.23322065D-03  0.46420101D-02  0.29190205D-02  0.46242189D-03 -0.48997551D-03
 -0.30810975D-03 -0.48809761D-04 -0.26719281D-01 -0.25841725D-01 -0.80537371D-02
  0.10920077D-02 -0.14606485D-02 -0.11023732D-02  0.26682377D-02  0.16778595D-02
  0.26580113D-03 -0.10686765D-03 -0.67201247D-04 -0.10645807D-04  0.33925404D-02
  0.21333204D-02  0.33795380D-03  0.26841337D+01  0.25959772D+01  0.80905271D+00
 -0.63390281D-02  0.84789622D-02  0.63991992D-02  0.26527472D-03  0.16681186D-03
  0.26425802D-04 -0.26766282D-03 -0.16831356D-03 -0.26663697D-04 -0.17775858D-03
 -0.11177936D-03 -0.17707729D-04 -0.13691127D-02 -0.13241462D-02 -0.41267852D-03
 -0.29824099D-04  0.39892142D-04  0.30107194D-04 -0.14881673D-04 -0.93579956D-05
 -0.14824637D-05  0.67293021D-04  0.42315657D-04  0.67035111D-05  0.93377519D-04
  0.58718290D-04  0.93019636D-05  0.18846509D-01  0.18227523D-01  0.56807229D-02
  0.99350086D-03 -0.13288877D-02 -0.10029313D-02 -0.30212266D-02 -0.18998284D-02
 -0.30096473D-03 -0.31073658D-02 -0.19539950D-02 -0.30954563D-03  0.39626896D-03
  0.24918455D-03  0.39475020D-04  0.26050363D-04  0.25194777D-04  0.78521114D-05
  0.19014750D-05 -0.25433764D-05 -0.19195241D-05 -0.34412854D-05 -0.21639726D-05
 -0.34280961D-06  0.28008657D-05  0.17612595D-05  0.27901309D-06  0.32925747D-05
  0.20704593D-05  0.32799555D-06  0.36273084D-04  0.35081747D-04  0.10933448D-04
  0.39153557D-04  0.37867616D-04  0.11801682D-04 -0.22687767D-02 -0.21942621D-02
 -0.68385565D-03 -0.20872528D-04 -0.20187000D-04 -0.62914061D-05 -0.35590438D-04
 -0.34421522D-04 -0.10727685D-04 -0.14881614D-03 -0.14392849D-03 -0.44856224D-04
 -0.12939475D-03 -0.12514497D-03 -0.39002221D-04  0.49519502D-05  0.47893107D-05
  0.14926190D-05  0.87829687D-06  0.84945050D-06  0.26473662D-06  0.25962510D-06
  0.25109810D-06  0.78256309D-07 -0.36526436D-04 -0.35326779D-04 -0.11009814D-04
MO    7     MO 0.0        OCC NO =    2.0000000  ORB. ENERGY =  -10.387771
  0.17296562D-04  0.16728482D-04  0.52135372D-05 -0.11585126D-04  0.15496042D-04
  0.11695094D-04  0.79228098D-04  0.49820754D-04  0.78924445D-05  0.18815886D-03
  0.11831934D-03  0.18743771D-04 -0.30822639D-03 -0.19382103D-03 -0.30704507D-04
 -0.51998072D-04  0.20504308D-04  0.40495756D-04 -0.45179955D-05 -0.51497631D-04
 -0.12375363D-04 -0.32129803D-06 -0.36622630D-05 -0.88007612D-06  0.65696752D-05
  0.74883366D-04  0.17995175D-04 -0.38644326D-04 -0.37375109D-04 -0.11648189D-04
 -0.14393426D-04  0.19252370D-04  0.14530051D-04 -0.13129551D-04 -0.82562142D-05
 -0.13079230D-05  0.87081774D-04  0.54759356D-04  0.86748020D-05 -0.15766702D-04
 -0.99145252D-05 -0.15706274D-05 -0.19829583D-04 -0.19178310D-04 -0.59770414D-05
 -0.64311902D-06  0.86022365D-06  0.64922362D-06  0.30335204D-04  0.19075591D-04
  0.30218940D-05  0.82282099D-05  0.51741192D-05  0.81966740D-06  0.60959629D-04
  0.38333051D-04  0.60725993D-05  0.16560649D-04  0.16016739D-04  0.49917180D-05
 -0.43583856D-04  0.58296929D-04  0.43997562D-04  0.15209513D-04  0.95641499D-05
  0.15151220D-05 -0.84257427D-04 -0.52983331D-04 -0.83934498D-05 -0.69547828D-04
 -0.43733540D-04 -0.69281276D-05  0.26821283D+01  0.25940378D+01  0.80844826D+00
 -0.65643380D-02  0.87803324D-02  0.66266478D-02  0.20257288D-04  0.12738326D-04
  0.20179649D-05  0.24808332D-03  0.15600145D-03  0.24713250D-04  0.26080835D-03
  0.16400329D-03  0.25980876D-04  0.30180584D-01  0.29189346D-01  0.90970443D-02
  0.96380366D-03 -0.12891653D-02 -0.97295225D-03 -0.26258074D-02 -0.16511782D-02
 -0.26157436D-03  0.16961347D-04  0.10665750D-04  0.16896340D-05 -0.34260258D-02
 -0.21543770D-02 -0.34128951D-03 -0.95338290D-01 -0.92207044D-01 -0.28736908D-01
  0.12500161D-02 -0.16719975D-02 -0.12618814D-02  0.26454878D-02  0.16635537D-02
  0.26353486D-03 -0.34078767D-02 -0.21429643D-02 -0.33948155D-03 -0.11096178D-03
 -0.69775747D-04 -0.11053651D-04  0.13564796D-02  0.13119280D-02  0.40887067D-03
  0.36341065D-05 -0.48609110D-05 -0.36686020D-05 -0.71430018D-04 -0.44917112D-04
 -0.71156252D-05  0.63840544D-04  0.40144647D-04  0.63595866D-05 -0.52094503D-04
 -0.32758422D-04 -0.51894843D-05 -0.92331824D-04 -0.89299321D-04 -0.27830698D-04
  0.68240330D-05 -0.91276955D-05 -0.68888080D-05 -0.24015564D-05 -0.15101631D-05
 -0.23923521D-06 -0.46248933D-04 -0.29082570D-04 -0.46071677D-05  0.40694897D-04
  0.25590043D-04  0.40538928D-05 -0.22720111D-02 -0.21973902D-02 -0.68483054D-03
 -0.22688402D-02 -0.21943234D-02 -0.68387477D-03 -0.12327531D-05 -0.11922651D-05
 -0.37157695D-06  0.98005188D-04  0.94786351D-04  0.29540766D-04  0.11359583D-03
  0.10986494D-03  0.34240104D-04 -0.54160699D-05 -0.52381871D-05 -0.16325141D-05
 -0.41942447D-04 -0.40564909D-04 -0.12642310D-04  0.59809746D-04  0.57845383D-04
  0.18027879D-04  0.30351672D-05  0.29354815D-05  0.91486138D-06  0.44780037D-05
  0.43309302D-05  0.13497618D-05 -0.37597614D-06 -0.36362775D-06 -0.11332689D-06
MO    8     MO 0.0        OCC NO =    2.0000000  ORB. ENERGY =  -10.377663
 -0.99808731D-03 -0.96530660D-03 -0.30084390D-03 -0.16352085D-03  0.21872235D-03
  0.16507302D-03 -0.70545534D-02 -0.44360925D-02 -0.70275158D-03  0.95317914D-03
  0.59938462D-03  0.94952594D-04  0.97870297D-02  0.61543469D-02  0.97495195D-03
  0.12668369D-02 -0.49954956D-03 -0.98660424D-03  0.10552266D-03  0.12027827D-02
  0.28903995D-03 -0.13985103D-04 -0.15940691D-03 -0.38306974D-04 -0.14630477D-03
 -0.16676310D-02 -0.40074735D-03 -0.13366899D-03 -0.12927883D-03 -0.40290563D-04
 -0.45748640D-04  0.61192502D-04  0.46182894D-04  0.25561133D-03  0.16073526D-03
  0.25463166D-04 -0.58464443D-04 -0.36764011D-04 -0.58240370D-05  0.18390648D-03
  0.11564533D-03  0.18320163D-04  0.12774925D-04  0.12355351D-04  0.38506234D-05
  0.52030176D-05 -0.69594563D-05 -0.52524055D-05 -0.26407011D-04 -0.16605437D-04
 -0.26305802D-05  0.23897370D-05  0.15027307D-05  0.23805780D-06 -0.20065338D-05
 -0.12617623D-05 -0.19988434D-06  0.47754835D-04  0.46186397D-04  0.14394283D-04
  0.13913327D-04 -0.18610199D-04 -0.14045395D-04 -0.59032408D-04 -0.37121162D-04
 -0.58806158D-05  0.53226209D-04  0.33470069D-04  0.53022212D-05 -0.64857929D-04
 -0.40784406D-04 -0.64609352D-05  0.98818522D-01  0.95572973D-01  0.29785921D-01
  0.78994789D-03 -0.10566191D-02 -0.79744622D-03 -0.26256584D-02 -0.16510845D-02
 -0.26155952D-03  0.34331971D-02  0.21588865D-02  0.34200389D-03  0.63162053D-04
  0.39717994D-04  0.62919976D-05  0.25952238D-02  0.25099875D-02  0.78225347D-03
  0.10521297D-04 -0.14073085D-04 -0.10621167D-04 -0.85197468D-04 -0.53574454D-04
 -0.84870936D-05  0.87127357D-04  0.54788020D-04  0.86793429D-05 -0.10163711D-03
 -0.63912143D-04 -0.10124757D-04  0.26826106D+01  0.25945042D+01  0.80859364D+00
 -0.63454712D-02  0.84875803D-02  0.64057035D-02 -0.49159786D-03 -0.30912993D-03
 -0.48971374D-04 -0.53495373D-03 -0.33639326D-03 -0.53290344D-04  0.85688879D-03
  0.53883467D-03  0.85360464D-04 -0.13271489D-03 -0.12835606D-03 -0.40002978D-04
 -0.11628472D-04  0.15554021D-04  0.11738851D-04  0.63347002D-05  0.39834295D-05
  0.63104216D-06  0.10118378D-04  0.63627079D-05  0.10079598D-05  0.29899026D-04
  0.18801310D-04  0.29784434D-05 -0.23624236D-02 -0.22848333D-02 -0.71208274D-03
 -0.37927676D-04  0.50731331D-04  0.38287692D-04 -0.16390984D-04 -0.10307090D-04
 -0.16328163D-05 -0.15826344D-03 -0.99520296D-04 -0.15765687D-04 -0.13267164D-03
 -0.83427485D-04 -0.13216315D-04 -0.61781161D-04 -0.59752049D-04 -0.18622104D-04
 -0.47450958D-04 -0.45892501D-04 -0.14302688D-04 -0.30099527D-04 -0.29110952D-04
 -0.90726121D-05 -0.22742823D-02 -0.21995868D-02 -0.68551513D-03 -0.22577619D-02
 -0.21836090D-02 -0.68053555D-03 -0.78947717D-05 -0.76354795D-05 -0.23796455D-05
 -0.40672381D-05 -0.39336556D-05 -0.12259486D-05 -0.23146424D-05 -0.22386214D-05
 -0.69768050D-06 -0.39031617D-04 -0.37749681D-04 -0.11764927D-04  0.71717895D-05
  0.69362426D-05  0.21617239D-05  0.11415055D-04  0.11040144D-04  0.34407308D-05
MO    9     MO 0.0        OCC NO =    2.0000000  ORB. ENERGY =  -10.371802