 opt phenylalanine pbe0
GAUSSIAN             71 MOL ORBITALS    213 PRIMITIVES       23 NUCLEI
  O    1    (CENTRE  1)  -2.52204852 -2.53127243 -2.84181097  CHARGE =  8.0
  O    2    (CENTRE  2)  -4.35398554 -2.91915484  1.12276059  CHARGE =  8.0
  N    3    (CENTRE  3)  -5.78476571  2.40831286  0.02994742  CHARGE =  7.0
  C    4    (CENTRE  4)  -1.16865348  2.15068251  1.51570027  CHARGE =  6.0
  C    5    (CENTRE  5)  -3.20066262  1.36584069 -0.48366017  CHARGE =  6.0
  C    6    (CENTRE  6)   1.45499109  1.13904313  0.87282703  CHARGE =  6.0
  C    7    (CENTRE  7)   2.34955928 -1.10021362  1.97216013  CHARGE =  6.0
  C    8    (CENTRE  8)   2.99482479  2.40666482 -0.87463121  CHARGE =  6.0
  C    9    (CENTRE  9)  -3.45401691 -1.56203450 -0.56483800  CHARGE =  6.0
  C   10    (CENTRE 10)   4.73132494 -2.04935314  1.34454849  CHARGE =  6.0
  C   11    (CENTRE 11)   5.37534182  1.46075488 -1.50453241  CHARGE =  6.0
  C   12    (CENTRE 12)   6.24986317 -0.77170914 -0.39628727  CHARGE =  6.0
  H   13    (CENTRE 13)  -1.76052622  1.44003487  3.37214736  CHARGE =  1.0
  H   14    (CENTRE 14)  -1.11987043  4.22358099  1.60443840  CHARGE =  1.0
  H   15    (CENTRE 15)  -2.59274916  2.01914314 -2.36382275  CHARGE =  1.0
  H   16    (CENTRE 16)   1.17106639 -2.10229354  3.33864586  CHARGE =  1.0
  H   17    (CENTRE 17)   2.32290252  4.15508119 -1.74120176  CHARGE =  1.0
  H   18    (CENTRE 18)  -5.51009428  4.33867705  0.39855090  CHARGE =  1.0
  H   19    (CENTRE 19)  -6.28001120  1.67968593  1.80881406  CHARGE =  1.0
  H   20    (CENTRE 20)   5.40552630 -3.79160137  2.22117482  CHARGE =  1.0
  H   21    (CENTRE 21)   6.55531891  2.47040352 -2.86345500  CHARGE =  1.0
  H   22    (CENTRE 22)   8.11282554 -1.51065309 -0.88571274  CHARGE =  1.0
  H   23    (CENTRE 23)  -2.79818845 -4.41488445 -2.63452915  CHARGE =  1.0
CENTRE ASSIGNMENTS    1  1  1  1  1  1  1  1  1  1  1  1  1  1  1  2  2  2  2  2
CENTRE ASSIGNMENTS    2  2  2  2  2  2  2  2  2  2  3  3  3  3  3  3  3  3  3  3
CENTRE ASSIGNMENTS    3  3  3  3  3  4  4  4  4  4  4  4  4  4  4  4  4  4  4  4
CENTRE ASSIGNMENTS    5  5  5  5  5  5  5  5  5  5  5  5  5  5  5  6  6  6  6  6
CENTRE ASSIGNMENTS    6  6  6  6  6  6  6  6  6  6  7  7  7  7  7  7  7  7  7  7
CENTRE ASSIGNMENTS    7  7  7  7  7  8  8  8  8  8  8  8  8  8  8  8  8  8  8  8
CENTRE ASSIGNMENTS    9  9  9  9  9  9  9  9  9  9  9  9  9  9  9 10 10 10 10 10
CENTRE ASSIGNMENTS   10 10 10 10 10 10 10 10 10 10 11 11 11 11 11 11 11 11 11 11
CENTRE ASSIGNMENTS   11 11 11 11 11 12 12 12 12 12 12 12 12 12 12 12 12 12 12 12
CENTRE ASSIGNMENTS   13 13 13 14 14 14 15 15 15 16 16 16 17 17 17 18 18 18 19 19
CENTRE ASSIGNMENTS   19 20 20 20 21 21 21 22 22 22 23 23 23
TYPE ASSIGNMENTS      1  1  1  1  1  1  2  2  2  3  3  3  4  4  4  1  1  1  1  1
TYPE ASSIGNMENTS      1  2  2  2  3  3  3  4  4  4  1  1  1  1  1  1  2  2  2  3
TYPE ASSIGNMENTS      3  3  4  4  4  1  1  1  1  1  1  2  2  2  3  3  3  4  4  4
TYPE ASSIGNMENTS      1  1  1  1  1  1  2  2  2  3  3  3  4  4  4  1  1  1  1  1
TYPE ASSIGNMENTS      1  2  2  2  3  3  3  4  4  4  1  1  1  1  1  1  2  2  2  3
TYPE ASSIGNMENTS      3  3  4  4  4  1  1  1  1  1  1  2  2  2  3  3  3  4  4  4
TYPE ASSIGNMENTS      1  1  1  1  1  1  2  2  2  3  3  3  4  4  4  1  1  1  1  1
TYPE ASSIGNMENTS      1  2  2  2  3  3  3  4  4  4  1  1  1  1  1  1  2  2  2  3
TYPE ASSIGNMENTS      3  3  4  4  4  1  1  1  1  1  1  2  2  2  3  3  3  4  4  4
TYPE ASSIGNMENTS      1  1  1  1  1  1  1  1  1  1  1  1  1  1  1  1  1  1  1  1
TYPE ASSIGNMENTS      1  1  1  1  1  1  1  1  1  1  1  1  1
EXPONENTS  0.1307093D+03 0.2380887D+02 0.6443608D+01 0.5033151D+01 0.1169596D+01
EXPONENTS  0.3803890D+00 0.5033151D+01 0.1169596D+01 0.3803890D+00 0.5033151D+01
EXPONENTS  0.1169596D+01 0.3803890D+00 0.5033151D+01 0.1169596D+01 0.3803890D+00
EXPONENTS  0.1307093D+03 0.2380887D+02 0.6443608D+01 0.5033151D+01 0.1169596D+01
EXPONENTS  0.3803890D+00 0.5033151D+01 0.1169596D+01 0.3803890D+00 0.5033151D+01
EXPONENTS  0.1169596D+01 0.3803890D+00 0.5033151D+01 0.1169596D+01 0.3803890D+00
EXPONENTS  0.9910617D+02 0.1805231D+02 0.4885660D+01 0.3780456D+01 0.8784966D+00
EXPONENTS  0.2857144D+00 0.3780456D+01 0.8784966D+00 0.2857144D+00 0.3780456D+01
EXPONENTS  0.8784966D+00 0.2857144D+00 0.3780456D+01 0.8784966D+00 0.2857144D+00
EXPONENTS  0.7161684D+02 0.1304510D+02 0.3530512D+01 0.2941249D+01 0.6834831D+00
EXPONENTS  0.2222899D+00 0.2941249D+01 0.6834831D+00 0.2222899D+00 0.2941249D+01
EXPONENTS  0.6834831D+00 0.2222899D+00 0.2941249D+01 0.6834831D+00 0.2222899D+00
EXPONENTS  0.7161684D+02 0.1304510D+02 0.3530512D+01 0.2941249D+01 0.6834831D+00
EXPONENTS  0.2222899D+00 0.2941249D+01 0.6834831D+00 0.2222899D+00 0.2941249D+01
EXPONENTS  0.6834831D+00 0.2222899D+00 0.2941249D+01 0.6834831D+00 0.2222899D+00
EXPONENTS  0.7161684D+02 0.1304510D+02 0.3530512D+01 0.2941249D+01 0.6834831D+00
EXPONENTS  0.2222899D+00 0.2941249D+01 0.6834831D+00 0.2222899D+00 0.2941249D+01
EXPONENTS  0.6834831D+00 0.2222899D+00 0.2941249D+01 0.6834831D+00 0.2222899D+00
EXPONENTS  0.7161684D+02 0.1304510D+02 0.3530512D+01 0.2941249D+01 0.6834831D+00
EXPONENTS  0.2222899D+00 0.2941249D+01 0.6834831D+00 0.2222899D+00 0.2941249D+01
EXPONENTS  0.6834831D+00 0.2222899D+00 0.2941249D+01 0.6834831D+00 0.2222899D+00
EXPONENTS  0.7161684D+02 0.1304510D+02 0.3530512D+01 0.2941249D+01 0.6834831D+00
EXPONENTS  0.2222899D+00 0.2941249D+01 0.6834831D+00 0.2222899D+00 0.2941249D+01
EXPONENTS  0.6834831D+00 0.2222899D+00 0.2941249D+01 0.6834831D+00 0.2222899D+00
EXPONENTS  0.7161684D+02 0.1304510D+02 0.3530512D+01 0.2941249D+01 0.6834831D+00
EXPONENTS  0.2222899D+00 0.2941249D+01 0.6834831D+00 0.2222899D+00 0.2941249D+01
EXPONENTS  0.6834831D+00 0.2222899D+00 0.2941249D+01 0.6834831D+00 0.2222899D+00
EXPONENTS  0.7161684D+02 0.1304510D+02 0.3530512D+01 0.2941249D+01 0.6834831D+00
EXPONENTS  0.2222899D+00 0.2941249D+01 0.6834831D+00 0.2222899D+00 0.2941249D+01
EXPONENTS  0.6834831D+00 0.2222899D+00 0.2941249D+01 0.6834831D+00 0.2222899D+00
EXPONENTS  0.7161684D+02 0.1304510D+02 0.3530512D+01 0.2941249D+01 0.6834831D+00
EXPONENTS  0.2222899D+00 0.2941249D+01 0.6834831D+00 0.2222899D+00 0.2941249D+01
EXPONENTS  0.6834831D+00 0.2222899D+00 0.2941249D+01 0.6834831D+00 0.2222899D+00
EXPONENTS  0.7161684D+02 0.1304510D+02 0.3530512D+01 0.2941249D+01 0.6834831D+00
EXPONENTS  0.2222899D+00 0.2941249D+01 0.6834831D+00 0.2222899D+00 0.2941249D+01
EXPONENTS  0.6834831D+00 0.2222899D+00 0.2941249D+01 0.6834831D+00 0.2222899D+00
EXPONENTS  0.3425251D+01 0.6239137D+00 0.1688554D+00 0.3425251D+01 0.6239137D+00
EXPONENTS  0.1688554D+00 0.3425251D+01 0.6239137D+00 0.1688554D+00 0.3425251D+01
EXPONENTS  0.6239137D+00 0.1688554D+00 0.3425251D+01 0.6239137D+00 0.1688554D+00
EXPONENTS  0.3425251D+01 0.6239137D+00 0.1688554D+00 0.3425251D+01 0.6239137D+00
EXPONENTS  0.1688554D+00 0.3425251D+01 0.6239137D+00 0.1688554D+00 0.3425251D+01
EXPONENTS  0.6239137D+00 0.1688554D+00 0.3425251D+01 0.6239137D+00 0.1688554D+00
EXPONENTS  0.3425251D+01 0.6239137D+00 0.1688554D+00
MO    1     MO 0.0        OCC NO =    2.0000005  ORB. ENERGY =    0.000000
 -0.83488441D-01 -0.80746386D-01 -0.25165122D-01 -0.17066606D-03  0.22827965D-03
  0.17228605D-03 -0.50099620D-03 -0.31503986D-03 -0.49907606D-04  0.10857852D-02
  0.68277088D-03  0.10816238D-03  0.83705165D-03  0.52636054D-03  0.83384353D-04
 -0.21473800D+01 -0.20768524D+01 -0.64726419D+00 -0.37036304D-04  0.49539048D-04
  0.37387859D-04 -0.45599690D-02 -0.28674309D-02 -0.45424923D-03 -0.72011463D-02
 -0.45282741D-02 -0.71735469D-03  0.82314233D-02  0.51761398D-02  0.81998751D-03
  0.28080683D+01  0.27158414D+01  0.84640914D+00 -0.23684364D-02  0.31679751D-02
  0.23909180D-02  0.12831364D-01  0.80687057D-02  0.12782186D-02  0.40515637D-02
  0.25477320D-02  0.40360355D-03  0.14417151D-01  0.90658917D-02  0.14361896D-02
  0.67173423D-01  0.64967211D-01  0.20247442D-01 -0.91038854D-04  0.12177182D-03
  0.91903010D-04  0.28343702D-04  0.17823280D-04  0.28235071D-05  0.29279485D-03
  0.18411726D-03  0.29167267D-04  0.40148459D-03  0.25246429D-03  0.39994585D-04
 -0.43508754D-01 -0.42079773D-01 -0.13114427D-01  0.36764609D-03 -0.49175635D-03
 -0.37113585D-03  0.30607961D-02  0.19247107D-02  0.30490652D-03 -0.23153827D-02
 -0.14559748D-02 -0.23065087D-03  0.43821758D-03  0.27556298D-03  0.43653805D-04
 -0.25567063D-01 -0.24727350D-01 -0.77064349D-02  0.48188439D-04 -0.64455930D-04
 -0.48645852D-04 -0.14679955D-03 -0.92311494D-04 -0.14623692D-04  0.20246232D-03
  0.12731374D-03  0.20168635D-04  0.27072367D-03  0.17023831D-03  0.26968608D-04
  0.12625534D-01  0.12210867D-01  0.38055939D-02 -0.16314383D-04  0.21821806D-04
  0.16469242D-04 -0.73659343D-04 -0.46318971D-04 -0.73377032D-05 -0.10442095D-03
 -0.65662695D-04 -0.10402074D-04 -0.16202071D-03 -0.10188297D-03 -0.16139974D-04
  0.16300276D-01  0.15764917D-01  0.49132360D-02 -0.35769326D-04  0.47844364D-04
  0.36108855D-04 -0.64701195D-04 -0.40685848D-04 -0.64453218D-05 -0.11096349D-03
 -0.69776822D-04 -0.11053821D-04 -0.12216204D-03 -0.76818769D-04 -0.12169384D-04
 -0.75418369D+00 -0.72941363D+00 -0.22732637D+00  0.11650326D-02 -0.15583252D-02
 -0.11760913D-02 -0.54516333D-03 -0.34281333D-03 -0.54307391D-04 -0.19968313D-03
 -0.12556611D-03 -0.19891781D-04  0.12961425D-02  0.81504921D-03  0.12911749D-03
  0.22120195D-01  0.21393689D-01  0.66674784D-02 -0.58039932D-04  0.77633098D-04
  0.58590857D-04 -0.84727076D-04 -0.53278659D-04 -0.84402347D-05  0.27597540D-04
  0.17354074D-04  0.27491769D-05 -0.35172366D-04 -0.22117327D-04 -0.35037563D-05
  0.20059279D-01  0.19400461D-01  0.60462763D-02 -0.49786443D-04  0.66593390D-04
  0.50259025D-04 -0.80275304D-04 -0.50479265D-04 -0.79967637D-05 -0.23330675D-04
 -0.14670955D-04 -0.23241257D-05 -0.69450681D-05 -0.43672452D-05 -0.69184501D-06
  0.47470496D-02  0.45911397D-02  0.14308577D-02 -0.16823436D-05  0.22502705D-05
  0.16983127D-05  0.64523727D-04  0.40574251D-04  0.64276430D-05  0.68002566D-04
  0.42761838D-04  0.67741936D-05  0.99455936D-04  0.62540562D-04  0.99074757D-05
 -0.19439996D-04 -0.18801518D-04 -0.58596119D-05  0.24760423D-04  0.23947203D-04
  0.74632973D-05  0.16284456D-03  0.15749617D-03  0.49084676D-04 -0.12214877D-04
 -0.11813698D-04 -0.36818135D-05 -0.46818381D-04 -0.45280700D-04 -0.14112016D-04
 -0.13468733D-02 -0.13026372D-02 -0.40597512D-03 -0.13401817D-02 -0.12961654D-02
 -0.40395814D-03 -0.42880852D-04 -0.41472494D-04 -0.12925165D-04 -0.36458762D-04
 -0.35261327D-04 -0.10989416D-04  0.16430526D-05  0.15890890D-05  0.49524963D-06
  0.31537268D-03  0.30501472D-03  0.95059767D-04
MO    2     MO 0.0        OCC NO =    2.0000005  ORB. ENERGY =    0.000000
  0.11191215D+00  0.10823655D+00  0.33732606D-01  0.20402480D-03 -0.27289965D-03
 -0.20596144D-03  0.15987989D-03  0.10053676D-03  0.15926712D-04 -0.14605106D-02
 -0.91840824D-03 -0.14549130D-03 -0.11507604D-02 -0.72362900D-03 -0.11463499D-03
  0.30940439D+01  0.29924245D+01  0.93260802D+00 -0.18392191D-03  0.24601042D-03
  0.18566773D-03  0.62751192D-02  0.39459633D-02  0.62510689D-03  0.92566006D-02
  0.58207989D-02  0.92211234D-03 -0.12167180D-01 -0.76510493D-02 -0.12120548D-02
  0.19875202D+01  0.19222431D+01  0.59907920D+00 -0.18490591D-02  0.24732659D-02
  0.18666107D-02  0.86604578D-02  0.54459283D-02  0.86272654D-03  0.25038821D-02
  0.15745082D-02  0.24942856D-03  0.99155825D-02  0.62351843D-02  0.98775796D-03
  0.71628071D-01  0.69275552D-01  0.21590164D-01 -0.16968924D-03  0.22697306D-03
  0.17129996D-03 -0.60408880D-04 -0.37986725D-04 -0.60177354D-05  0.65775091D-04
  0.41361142D-04  0.65522998D-05  0.23596520D-03  0.14838125D-03  0.23506083D-04
 -0.34853599D-01 -0.33708883D-01 -0.10505587D-01  0.99865079D-03 -0.13357761D-02
 -0.10081302D-02  0.22953918D-02  0.14434040D-02  0.22865944D-03  0.20876623D-02
  0.13127781D-02  0.20796610D-03  0.71476524D-03  0.44946357D-03  0.71202580D-04
 -0.18927845D-01 -0.18306188D-01 -0.57052391D-02  0.53981324D-04 -0.72204382D-04
 -0.54493724D-04 -0.70457831D-04 -0.44305775D-04 -0.70187791D-05  0.21238497D-03
  0.13355337D-03  0.21157098D-04  0.20601695D-03  0.12954899D-03  0.20522736D-04
  0.25442512D-01  0.24606889D-01  0.76688927D-02 -0.61145157D-04  0.81786587D-04
  0.61725557D-04 -0.15670751D-04 -0.98541887D-05 -0.15610691D-05 -0.55755194D-04
 -0.35060362D-04 -0.55541504D-05 -0.59811049D-04 -0.37610792D-04 -0.59581814D-05
  0.12335976D-01  0.11930819D-01  0.37183152D-02 -0.27933927D-04  0.37363884D-04
  0.28199081D-04 -0.54745519D-04 -0.34425451D-04 -0.54535699D-05 -0.92468640D-04
 -0.58146762D-04 -0.92114240D-05 -0.82927891D-04 -0.52147283D-04 -0.82610058D-05
  0.98744359D+00  0.95501245D+00  0.29763567D+00 -0.15503553D-02  0.20737255D-02
  0.15650716D-02  0.98310601D-03  0.61820344D-03  0.97933812D-04  0.89422313D-03
  0.56231150D-03  0.89079589D-04 -0.19035617D-02 -0.11970107D-02 -0.18962661D-03
  0.24482661D-01  0.23678564D-01  0.73795740D-02 -0.58016843D-04  0.77602214D-04
  0.58567548D-04 -0.59994816D-04 -0.37726350D-04 -0.59764877D-05  0.26640345D-04
  0.16752164D-04  0.26538242D-05 -0.41581861D-04 -0.26147790D-04 -0.41422492D-05
  0.14896158D-01  0.14406916D-01  0.44900063D-02 -0.36775509D-04  0.49190215D-04
  0.37124589D-04 -0.56502905D-04 -0.35530543D-04 -0.56286349D-05 -0.61999386D-05
 -0.38986878D-05 -0.61761765D-06  0.35576334D-05  0.22371354D-05  0.35439983D-06
  0.37851269D-02  0.36608099D-02  0.11409145D-02  0.11207593D-05 -0.14991061D-05
 -0.11313978D-05  0.49667619D-04  0.31232332D-04  0.49477261D-05  0.45041853D-04
  0.28323526D-04  0.44869224D-05  0.54893345D-04  0.34518408D-04  0.54682958D-05
 -0.49279804D-04 -0.47661281D-04 -0.14853940D-04 -0.12972678D-03 -0.12546610D-03
 -0.39102302D-04  0.25012182D-03  0.24190693D-03  0.75391825D-04 -0.92612830D-04
 -0.89571097D-04 -0.27915398D-04 -0.36040485D-04 -0.34856789D-04 -0.10863338D-04
 -0.10813800D-02 -0.10458637D-02 -0.32595003D-03 -0.10517680D-02 -0.10172242D-02
 -0.31702436D-03 -0.40665080D-04 -0.39329495D-04 -0.12257286D-04 -0.26339227D-04
 -0.25474154D-04 -0.79391810D-05  0.34596791D-05  0.33460510D-05  0.10428179D-05
 -0.37419420D-03 -0.36190434D-03 -0.11278978D-03
MO    3     MO 0.0        OCC NO =    2.0000003  ORB. ENERGY =    0.000000
  0.42022069D+01  0.40641916D+01  0.12666310D+01 -0.52136169D-03  0.69736338D-03
  0.52631055D-03 -0.88012030D-02 -0.55344326D-02 -0.87674711D-03 -0.10317268D-01
 -0.64877750D-02 -0.10277726D-02  0.17241834D-01  0.10842128D-01  0.17175752D-02
 -0.40879462D+00 -0.39536836D+00 -0.12321905D+00 -0.59556315D-04  0.79661382D-04
  0.60121634D-04 -0.91635197D-03 -0.57622671D-03 -0.91283992D-04 -0.13499139D-02
 -0.84886209D-03 -0.13447402D-03  0.17501013D-02  0.11005107D-02  0.17433938D-03
  0.13965571D-01  0.13506892D-01  0.42095083D-02  0.46057516D-05 -0.61605648D-05
 -0.46494702D-05 -0.43284385D-04 -0.27218383D-04 -0.43118491D-05  0.91475528D-04
  0.57522267D-04  0.91124935D-05  0.75082441D-04  0.47213854D-04  0.74794677D-05
  0.47261880D-02  0.45709632D-02  0.14245696D-02  0.64541457D-05 -0.86329413D-05
 -0.65154096D-05  0.55083659D-04  0.34638083D-04  0.54872543D-05  0.35423871D-04
  0.22275481D-04  0.35288104D-05  0.43573008D-04  0.27399877D-04  0.43406008D-05
  0.75854518D-01  0.73363188D-01  0.22864101D-01 -0.12882475D-03  0.17231352D-03
  0.13004758D-03  0.16173910D-03  0.10170589D-03  0.16111921D-04  0.51367688D-03
  0.32301381D-03  0.51170814D-04 -0.32161740D-03 -0.20224165D-03 -0.32038476D-04
 -0.95140758D-03 -0.92015999D-03 -0.28677368D-03  0.44770666D-05 -0.59884383D-05
 -0.45195637D-05  0.56373922D-05  0.35449435D-05  0.56157861D-06  0.98667332D-05
  0.62044666D-05  0.98289176D-06  0.10573469D-04  0.66488809D-05  0.10532944D-05
  0.20071031D-02  0.19411827D-02  0.60498187D-03 -0.62685765D-05  0.83847275D-05
  0.63280789D-05  0.55134117D-05  0.34669812D-05  0.54922807D-06  0.44460350D-05
  0.27957861D-05  0.44289949D-06 -0.87507037D-05 -0.55026773D-05 -0.87171654D-06
 -0.18466987D-02 -0.17860466D-02 -0.55663270D-03  0.36382298D-05 -0.48664263D-05
 -0.36727645D-05 -0.13866456D-05 -0.87195996D-06 -0.13813311D-06  0.41149960D-06
  0.25876199D-06  0.40992247D-07  0.46502596D-05  0.29242080D-05  0.46324368D-06
  0.30569018D+00  0.29565023D+00  0.92141263D-01 -0.20159796D-03  0.26965356D-03
  0.20351157D-03 -0.19536816D-02 -0.12285274D-02 -0.19461938D-03 -0.70042732D-03
 -0.44044750D-03 -0.69774283D-04  0.41798469D-02  0.26283999D-02  0.41638270D-03
 -0.96495763D-03 -0.93326501D-03 -0.29085794D-03  0.23700779D-05 -0.31701707D-05
 -0.23925751D-05  0.42667344D-05  0.26830371D-05  0.42503815D-06  0.13010372D-05
  0.81812712D-06  0.12960508D-06  0.12957152D-05  0.81478049D-06  0.12907492D-06
 -0.13304684D-02 -0.12867711D-02 -0.40103036D-03  0.20854937D-05 -0.27895163D-05
 -0.21052896D-05 -0.18336136D-06 -0.11530254D-06 -0.18265860D-07 -0.17082167D-05
 -0.10741725D-05 -0.17016698D-06 -0.27810067D-05 -0.17487716D-05 -0.27703480D-06
 -0.21199077D-02 -0.20502825D-02 -0.63898349D-03  0.49762155D-05 -0.66560903D-05
 -0.50234506D-05  0.28160187D-05  0.17707881D-05  0.28052259D-06 -0.14003426D-06
 -0.88057303D-07 -0.13949756D-07 -0.26921977D-05 -0.16929262D-05 -0.26818795D-06
 -0.46861495D-05 -0.45322398D-05 -0.14125012D-05 -0.21708233D-04 -0.20995258D-04
 -0.65433048D-05 -0.25836668D-03 -0.24988101D-03 -0.77876996D-04 -0.24445048D-05
 -0.23642186D-05 -0.73682367D-06  0.30118333D-05  0.29129141D-05  0.90782809D-06
 -0.30660959D-04 -0.29653944D-04 -0.92418392D-05 -0.14253149D-04 -0.13785025D-04
 -0.42961903D-05  0.14589293D-05  0.14110129D-05  0.43975110D-06  0.15431144D-05
  0.14924331D-05  0.46512620D-06  0.25971236D-05  0.25118249D-05  0.78282610D-06
 -0.14038779D-02 -0.13577696D-02 -0.42315746D-03
MO    4     MO 0.0        OCC NO =    2.0000003  ORB. ENERGY =    0.000000
  0.31869409D-02  0.30822705D-02  0.96060909D-03 -0.79224103D-05  0.10596864D-04
  0.79976112D-05  0.83761012D-05  0.52671172D-05  0.83439985D-06  0.84742038D-05
  0.53288068D-05  0.84417252D-06  0.56351137D-04  0.35435107D-04  0.56135163D-05
 -0.13725650D-01 -0.13274852D-01 -0.41371914D-02  0.79311766D-05 -0.10608589D-04
 -0.80064607D-05  0.19822997D-04  0.12465232D-04  0.19747022D-05 -0.37981032D-04
 -0.23883492D-04 -0.37835465D-05  0.44493203D-04  0.27978520D-04  0.44322676D-05
 -0.46702401D-01 -0.45168529D-01 -0.14077058D-01  0.63610763D-04 -0.85084534D-04
 -0.64214567D-04 -0.15996340D-03 -0.10058928D-03 -0.15935031D-04 -0.38826729D-04
 -0.24415289D-04 -0.38677920D-05 -0.17621506D-03 -0.11080876D-03 -0.17553969D-04
 -0.20285767D-01 -0.19619511D-01 -0.61145446D-02  0.33424543D-03 -0.44708026D-03
 -0.33741814D-03 -0.94364711D-03 -0.59339063D-03 -0.94003045D-04  0.35102571D-03
  0.22073439D-03  0.34968036D-04  0.21167337D-03  0.13310589D-03  0.21086210D-04
 -0.44889906D-02 -0.43415563D-02 -0.13530735D-02 -0.12783099D-04  0.17098427D-04
  0.12904438D-04 -0.92584848D-04 -0.58219837D-04 -0.92230003D-05  0.26617337D-04
  0.16737696D-04  0.26515322D-05  0.72152602D-05  0.45371492D-05  0.71876066D-06
  0.74727904D+00  0.72273575D+00  0.22524517D+00 -0.12463032D-02  0.16670312D-02
  0.12581333D-02 -0.48781617D-03 -0.30675190D-03 -0.48594655D-04  0.14997411D-03
  0.94307744D-04  0.14939931D-04  0.10079363D-03  0.63381742D-04  0.10040733D-04
  0.99392395D+00  0.96127997D+00  0.29958898D+00 -0.18566905D-02  0.24834735D-02
  0.18743145D-02 -0.21472351D-03 -0.13502390D-03 -0.21390055D-04  0.36447364D-03
  0.22919080D-03  0.36307674D-04 -0.13419670D-03 -0.84386484D-04 -0.13368237D-04
  0.10068529D+01  0.97378426D+00  0.30348602D+00 -0.18871653D-02  0.25242361D-02
  0.19050786D-02 -0.29267184D-03 -0.18403990D-03 -0.29155013D-04 -0.15652768D-03
 -0.98428808D-04 -0.15592777D-04  0.28255040D-03  0.17767527D-03  0.28146748D-04
 -0.20797011D-02 -0.20113964D-02 -0.62686440D-03  0.11994440D-04 -0.16043532D-04
 -0.12108293D-04 -0.86896746D-04 -0.54643006D-04 -0.86563702D-05 -0.76171942D-05
 -0.47898961D-05 -0.75880002D-06  0.30790183D-06  0.19361693D-06  0.30672175D-07
  0.12162685D+01  0.11763220D+01  0.36660817D+00 -0.23422622D-02  0.31329649D-02
  0.23644954D-02 -0.42587878D-03 -0.26780401D-03 -0.42424654D-04  0.32380316D-03
  0.20361612D-03  0.32256214D-04  0.65768155D-05  0.41356780D-05  0.65516089D-06
  0.12271705D+01  0.11868659D+01  0.36989427D+00 -0.23661131D-02  0.31648674D-02
  0.23885726D-02 -0.49777190D-03 -0.31301233D-03 -0.49586412D-04  0.42812187D-04
  0.26921452D-04  0.42648103D-05  0.24522269D-03  0.15420261D-03  0.24428284D-04
  0.12780257D+01  0.12360509D+01  0.38522306D+00 -0.24397472D-02  0.32633590D-02
  0.24629057D-02 -0.37379759D-03 -0.23505396D-03 -0.37236496D-04  0.13005174D-03
  0.81780025D-04  0.12955330D-04  0.11508534D-03  0.72368753D-04  0.11464426D-04
 -0.38006323D-04 -0.36758061D-04 -0.11455882D-04 -0.32974771D-04 -0.31891763D-04
 -0.99392695D-05 -0.36641231D-04 -0.35437803D-04 -0.11044415D-04 -0.95870092D-03
 -0.92721379D-03 -0.28897204D-03 -0.97280769D-03 -0.94085725D-03 -0.29322411D-03
  0.25440458D-04  0.24604903D-04  0.76682735D-05  0.23390446D-04  0.22622221D-04
  0.70503582D-05 -0.11834093D-02 -0.11445419D-02 -0.35670372D-03 -0.11950183D-02
 -0.11557697D-02 -0.36020293D-03 -0.12277732D-02 -0.11874488D-02 -0.37007593D-03
 -0.32764672D-05 -0.31688564D-05 -0.98759414D-06
MO    5     MO 0.0        OCC NO =    2.0000003  ORB. ENERGY =    0.000000
  0.33852675D-02  0.32740833D-02  0.10203888D-02  0.25806821D-05 -0.34518708D-05
 -0.26051784D-05 -0.95330086D-05 -0.59946116D-05 -0.94964719D-06 -0.13008476D-04
 -0.81800787D-05 -0.12958619D-05 -0.18719215D-04 -0.11771145D-04 -0.18647471D-05
  0.13409296D-01  0.12968888D-01  0.40418358D-02 -0.96656199D-05  0.12928548D-04
  0.97573677D-05 -0.11483510D-04 -0.72211390D-05 -0.11439497D-05  0.28766286D-04
  0.18089012D-04  0.28656035D-05 -0.36109175D-04 -0.22706418D-04 -0.35970781D-05
  0.81031118D-02  0.78369769D-02  0.24424434D-02 -0.75398854D-05  0.10085206D-04
  0.76114553D-05  0.41087728D-05  0.25837066D-05  0.40930253D-06  0.24443397D-05
  0.15370664D-05  0.24349714D-06  0.30205882D-04  0.18994269D-04  0.30090114D-05
 -0.30438921D-02 -0.29439199D-02 -0.91749124D-03  0.15726246D-04 -0.21035124D-04
 -0.15875522D-04  0.25140243D-05  0.15808859D-05  0.25043889D-06  0.73551655D-04
  0.46251255D-04  0.73269758D-05 -0.40878875D-04 -0.25705734D-04 -0.40722201D-05
  0.78474227D-02  0.75896856D-02  0.23653735D-02 -0.20491005D-04  0.27408375D-04
  0.20685510D-04  0.42236340D-05  0.26559344D-05  0.42074463D-06  0.32591186D-04
  0.20494213D-04  0.32466276D-05 -0.55032324D-05 -0.34605802D-05 -0.54821405D-06
  0.13349405D-01  0.12910964D-01  0.40237835D-02 -0.22137045D-04  0.29610086D-04
  0.22347174D-04 -0.39082369D-03 -0.24576043D-03 -0.38932580D-04 -0.20584650D-02
 -0.12944180D-02 -0.20505756D-03  0.16769497D-02  0.10545110D-02  0.16705225D-03
 -0.12961882D+01 -0.12536168D+01 -0.39069760D+00  0.29093363D-02 -0.38914723D-02
 -0.29369522D-02  0.25538660D-03  0.16059395D-03  0.25440780D-04 -0.16219269D-02
 -0.10199112D-02 -0.16157106D-03  0.10071899D-02  0.63334801D-03  0.10033297D-03
  0.13361102D+01  0.12922276D+01  0.40273090D+00 -0.30099059D-02  0.40259923D-02
  0.30384765D-02 -0.68513390D-03 -0.43083058D-03 -0.68250802D-04 -0.12470906D-02
 -0.78420401D-03 -0.12423109D-03  0.12707936D-02  0.79910912D-03  0.12659231D-03
  0.44045226D-02  0.42598625D-02  0.13276131D-02 -0.11805800D-04  0.15791212D-04
  0.11917863D-04  0.44672018D-04  0.28090964D-04  0.44500806D-05 -0.67974364D-05
 -0.42744104D-05 -0.67713842D-06  0.73718559D-05  0.46356208D-05  0.73436022D-06
 -0.13713791D+01 -0.13263382D+01 -0.41336167D+00  0.31083752D-02 -0.41577029D-02
 -0.31378804D-02 -0.60402539D-03 -0.37982737D-03 -0.60171037D-04 -0.13619752D-02
 -0.85644654D-03 -0.13567552D-03  0.12950946D-02  0.81439027D-03  0.12901310D-03
  0.13542682D+01  0.13097892D+01  0.40820409D+00 -0.30833204D-02  0.41241902D-02
  0.31125878D-02  0.12388204D-03  0.77900351D-04  0.12340724D-04 -0.16991914D-02
 -0.10684972D-02 -0.16926790D-03  0.11448736D-02  0.71992723D-03  0.11404857D-03
 -0.47418811D-01 -0.45861410D-01 -0.14292998D-01  0.11818044D-03 -0.15807588D-03
 -0.11930223D-03 -0.32987002D-03 -0.20743112D-03 -0.32860575D-04 -0.21781885D-02
 -0.13697034D-02 -0.21698403D-03  0.17288488D-02  0.10871465D-02  0.17222227D-03
 -0.41049515D-05 -0.39701304D-05 -0.12373162D-05  0.52273986D-05  0.50557123D-05
  0.15756447D-05 -0.34735258D-04 -0.33594429D-04 -0.10469916D-04  0.13150698D-02
  0.12718783D-02  0.39638890D-03 -0.13607158D-02 -0.13160251D-02 -0.41014753D-03
 -0.47130945D-05 -0.45582998D-05 -0.14206230D-05 -0.57175057D-05 -0.55297226D-05
 -0.17233730D-05  0.14112067D-02  0.13648577D-02  0.42536652D-03 -0.13969313D-02
 -0.13510511D-02 -0.42106362D-03  0.51240330D-04  0.49557416D-04  0.15444882D-04
  0.29946317D-06  0.28962774D-06  0.90264317D-07
MO    6     MO 0.0        OCC NO =    2.0000002  ORB. ENERGY =    0.000000
  0.26117063D-03  0.25259287D-03  0.78722164D-04 -0.14429732D-04  0.19300933D-04
  0.14566702D-04 -0.20923335D-05 -0.13157155D-05 -0.20843144D-06  0.25578827D-04
  0.16084653D-04  0.25480792D-05  0.77351155D-04  0.48640482D-04  0.77054695D-05
  0.25966474D-02  0.25113643D-02  0.78268256D-03  0.27745937D-05 -0.37112432D-05
 -0.28009306D-05  0.72925069D-04  0.45857240D-04  0.72645573D-05 -0.70673718D-05
 -0.44441531D-05 -0.70402851D-06 -0.22245134D-04 -0.13988337D-04 -0.22159876D-05
  0.12653819D-01  0.12238223D-01  0.38141195D-02 -0.24717626D-05  0.33061822D-05
  0.24952250D-05 -0.54862438D-04 -0.34498973D-04 -0.54652170D-05  0.40605680D-04
  0.25533941D-04  0.40450053D-05  0.36761182D-04  0.23116418D-04  0.36620290D-05
  0.48898107D-01  0.47292120D-01  0.14738888D-01  0.39989471D-03 -0.53489148D-03
 -0.40369058D-03 -0.19735618D-02 -0.12410286D-02 -0.19659978D-03  0.74764623D-03
  0.47014001D-03  0.74478077D-04  0.46083070D-03  0.28978271D-03  0.45906450D-04
 -0.83025773D-03 -0.80298913D-03 -0.25025664D-03 -0.13997048D-06  0.18722182D-06
  0.14129910D-06 -0.11533576D-03 -0.72526218D-04 -0.11489371D-04  0.34575525D-05
  0.21742018D-05  0.34443009D-06 -0.23187798D-04 -0.14581110D-04 -0.23098928D-05
  0.13678619D+01  0.13229365D+01  0.41230153D+00 -0.28326580D-02  0.37889089D-02
  0.28595461D-02  0.34197841D-03  0.21504520D-03  0.34066772D-04 -0.12953935D-03
 -0.81457822D-04 -0.12904288D-04 -0.19609129D-03 -0.12330746D-03 -0.19533974D-04
  0.11304806D+01  0.10933516D+01  0.34074994D+00 -0.26149867D-02  0.34977560D-02
  0.26398086D-02  0.21795347D-02  0.13705499D-02  0.21711813D-03 -0.84186452D-03
 -0.52938700D-03 -0.83863795D-04 -0.59938938D-03 -0.37691213D-03 -0.59709214D-04
  0.10543514D+01  0.10197227D+01  0.31780304D+00 -0.24277480D-02  0.32473091D-02
  0.24507926D-02  0.21784290D-02  0.13698546D-02  0.21700799D-03 -0.79740469D-03
 -0.50142947D-03 -0.79434852D-04 -0.62659814D-03 -0.39402172D-03 -0.62419661D-04
 -0.12406125D-01 -0.11998664D-01 -0.37394594D-02  0.43030146D-04 -0.57556296D-04
 -0.43438595D-04 -0.11978486D-03 -0.75323932D-04 -0.11932576D-04  0.16574506D-04
  0.10422494D-04  0.16510982D-05 -0.20556119D-04 -0.12926239D-04 -0.20477335D-05
 -0.48206834D+00 -0.46623551D+00 -0.14530524D+00  0.11102425D-02 -0.14850391D-02
 -0.11207811D-02  0.24289466D-02  0.15273868D-02  0.24196373D-03 -0.29304619D-03
 -0.18427531D-03 -0.29192305D-04 -0.11275680D-02 -0.70904501D-03 -0.11232464D-03
 -0.51426089D+00 -0.49737074D+00 -0.15500874D+00  0.11665351D-02 -0.15603349D-02
 -0.11776081D-02  0.21499069D-02  0.13519191D-02  0.21416671D-03 -0.15067521D-02
 -0.94748618D-03 -0.15009773D-03 -0.11523662D-03 -0.72463878D-04 -0.11479496D-04
 -0.15564434D+01 -0.15053243D+01 -0.46914382D+00  0.37154979D-02 -0.49697786D-02
 -0.37507660D-02  0.18522857D-02  0.11647669D-02  0.18451865D-03 -0.70440152D-03
 -0.44294658D-03 -0.70170179D-04 -0.52382364D-03 -0.32939436D-03 -0.52181601D-04
 -0.85435025D-04 -0.82629037D-04 -0.25751862D-04 -0.82455618D-04 -0.79747484D-04
 -0.24853807D-04 -0.42683452D-04 -0.41281577D-04 -0.12865664D-04 -0.11934496D-02
 -0.11542525D-02 -0.35973008D-03 -0.11144110D-02 -0.10778098D-02 -0.33590624D-03
 -0.68966698D-05 -0.66701588D-05 -0.20787971D-05 -0.75602835D-05 -0.73119771D-05
 -0.22788239D-05  0.48065649D-03  0.46487003D-03  0.14487968D-03  0.51099383D-03
  0.49421099D-03  0.15402398D-03  0.16454009D-02  0.15913601D-02  0.49595744D-03
 -0.43243263D-06 -0.41823001D-06 -0.13034403D-06
MO    7     MO 0.0        OCC NO =    2.0000002  ORB. ENERGY =    0.000000
  0.58767386D+00  0.56837257D+00  0.17713691D+00 -0.12341877D-02  0.16508257D-02
  0.12459028D-02 -0.22730563D-02 -0.14293588D-02 -0.22643445D-03  0.49642105D-03
  0.31216288D-03  0.49451845D-04  0.52340760D-02  0.32913275D-02  0.52140157D-03
  0.19087511D+01  0.18460609D+01  0.57533656D+00 -0.76760377D-03  0.10267321D-02
  0.77489000D-03  0.32737693D-02  0.20586340D-02  0.32612221D-03  0.50692377D-02
  0.31876727D-02  0.50498091D-03 -0.61905490D-02 -0.38927834D-02 -0.61668229D-03
 -0.52373904D-01 -0.50653760D-01 -0.15786564D-01  0.25679789D-03 -0.34348793D-03
 -0.25923546D-03 -0.92661928D-03 -0.58268307D-03 -0.92306788D-04  0.96473578D-04
  0.60665175D-04  0.96103830D-05 -0.20240430D-03 -0.12727725D-03 -0.20162855D-04
  0.27754978D-01  0.26843406D-01  0.83659172D-02  0.94052624D-04 -0.12580298D-03
 -0.94945388D-04  0.52282959D-03  0.32876928D-03  0.52082577D-04  0.12936299D-04
  0.81346920D-05  0.12886719D-05  0.37855604D-03  0.23804620D-03  0.37710517D-04
  0.41932772D+00  0.40555551D+00  0.12639394D+00 -0.20741534D-02  0.27743478D-02
  0.20938417D-02 -0.67338275D-03 -0.42344115D-03 -0.67080192D-04 -0.45758122D-02
 -0.28773935D-02 -0.45582747D-03  0.88788520D-04  0.55832604D-04  0.88448225D-05
  0.13520248D-02  0.13076195D-02  0.40752788D-03 -0.13081043D-05  0.17496952D-05
  0.13205211D-05 -0.30889955D-04 -0.19424432D-04 -0.30771565D-05 -0.13105151D-03
 -0.82408706D-04 -0.13054924D-04 -0.62012970D-04 -0.38995419D-04 -0.61775296D-05
 -0.44945470D-02 -0.43469302D-02 -0.13547483D-02  0.12465173D-04 -0.16673176D-04
 -0.12583495D-04 -0.11677010D-03 -0.73428173D-04 -0.11632256D-04 -0.28600797D-04
 -0.17984948D-04 -0.28491180D-05 -0.90434660D-04 -0.56867741D-04 -0.90088056D-05