 opt phenylalanine b3lyp
GAUSSIAN             44 MOL ORBITALS    213 PRIMITIVES       23 NUCLEI
  O    1    (CENTRE  1)  -2.85682582 -2.54327548 -2.92680722  CHARGE =  8.0
  O    2    (CENTRE  2)  -4.29351238 -2.93384240  1.25990225  CHARGE =  8.0
  N    3    (CENTRE  3)  -5.80965583  2.50825570  0.03703596  CHARGE =  7.0
  C    4    (CENTRE  4)  -1.12743654  2.16888184  1.53715532  CHARGE =  6.0
  C    5    (CENTRE  5)  -3.20789682  1.38967224 -0.47127031  CHARGE =  6.0
  C    6    (CENTRE  6)   1.51244183  1.13497097  0.87152425  CHARGE =  6.0
  C    7    (CENTRE  7)   2.38656285 -1.16044723  1.92781754  CHARGE =  6.0
  C    8    (CENTRE  8)   3.08689356  2.43761741 -0.85432437  CHARGE =  6.0
  C    9    (CENTRE  9)  -3.53482182 -1.56811999 -0.51751774  CHARGE =  6.0
  C   10    (CENTRE 10)   4.77911850 -2.12824361  1.27897988  CHARGE =  6.0
  C   11    (CENTRE 11)   5.47848811  1.47191210 -1.50449664  CHARGE =  6.0
  C   12    (CENTRE 12)   6.33086929 -0.81521862 -0.43971576  CHARGE =  6.0
  H   13    (CENTRE 13)  -1.71643293  1.45409286  3.40703617  CHARGE =  1.0
  H   14    (CENTRE 14)  -1.06584911  4.25436735  1.62534358  CHARGE =  1.0
  H   15    (CENTRE 15)  -2.59793583  2.01692622 -2.37354704  CHARGE =  1.0
  H   16    (CENTRE 16)   1.18570817 -2.18898770  3.27341737  CHARGE =  1.0
  H   17    (CENTRE 17)   2.43611265  4.22525851 -1.68531372  CHARGE =  1.0
  H   18    (CENTRE 18)  -5.47129122  4.46539285  0.33748913  CHARGE =  1.0
  H   19    (CENTRE 19)  -6.27232110  1.86600766  1.88356146  CHARGE =  1.0
  H   20    (CENTRE 20)   5.43482715 -3.90904932  2.12013084  CHARGE =  1.0
  H   21    (CENTRE 21)   6.68173577  2.50724544 -2.84201230  CHARGE =  1.0
  H   22    (CENTRE 22)   8.19804384 -1.56747939 -0.94381998  CHARGE =  1.0
  H   23    (CENTRE 23)  -3.16761473 -4.45077204 -2.69521045  CHARGE =  1.0
CENTRE ASSIGNMENTS    1  1  1  1  1  1  1  1  1  1  1  1  1  1  1  2  2  2  2  2
CENTRE ASSIGNMENTS    2  2  2  2  2  2  2  2  2  2  3  3  3  3  3  3  3  3  3  3
CENTRE ASSIGNMENTS    3  3  3  3  3  4  4  4  4  4  4  4  4  4  4  4  4  4  4  4
CENTRE ASSIGNMENTS    5  5  5  5  5  5  5  5  5  5  5  5  5  5  5  6  6  6  6  6
CENTRE ASSIGNMENTS    6  6  6  6  6  6  6  6  6  6  7  7  7  7  7  7  7  7  7  7
CENTRE ASSIGNMENTS    7  7  7  7  7  8  8  8  8  8  8  8  8  8  8  8  8  8  8  8
CENTRE ASSIGNMENTS    9  9  9  9  9  9  9  9  9  9  9  9  9  9  9 10 10 10 10 10
CENTRE ASSIGNMENTS   10 10 10 10 10 10 10 10 10 10 11 11 11 11 11 11 11 11 11 11
CENTRE ASSIGNMENTS   11 11 11 11 11 12 12 12 12 12 12 12 12 12 12 12 12 12 12 12
CENTRE ASSIGNMENTS   13 13 13 14 14 14 15 15 15 16 16 16 17 17 17 18 18 18 19 19
CENTRE ASSIGNMENTS   19 20 20 20 21 21 21 22 22 22 23 23 23
TYPE ASSIGNMENTS      1  1  1  1  1  1  2  2  2  3  3  3  4  4  4  1  1  1  1  1
TYPE ASSIGNMENTS      1  2  2  2  3  3  3  4  4  4  1  1  1  1  1  1  2  2  2  3
TYPE ASSIGNMENTS      3  3  4  4  4  1  1  1  1  1  1  2  2  2  3  3  3  4  4  4
TYPE ASSIGNMENTS      1  1  1  1  1  1  2  2  2  3  3  3  4  4  4  1  1  1  1  1
TYPE ASSIGNMENTS      1  2  2  2  3  3  3  4  4  4  1  1  1  1  1  1  2  2  2  3
TYPE ASSIGNMENTS      3  3  4  4  4  1  1  1  1  1  1  2  2  2  3  3  3  4  4  4
TYPE ASSIGNMENTS      1  1  1  1  1  1  2  2  2  3  3  3  4  4  4  1  1  1  1  1
TYPE ASSIGNMENTS      1  2  2  2  3  3  3  4  4  4  1  1  1  1  1  1  2  2  2  3
TYPE ASSIGNMENTS      3  3  4  4  4  1  1  1  1  1  1  2  2  2  3  3  3  4  4  4
TYPE ASSIGNMENTS      1  1  1  1  1  1  1  1  1  1  1  1  1  1  1  1  1  1  1  1
TYPE ASSIGNMENTS      1  1  1  1  1  1  1  1  1  1  1  1  1
EXPONENTS  0.1307093D+03 0.2380887D+02 0.6443608D+01 0.5033151D+01 0.1169596D+01
EXPONENTS  0.3803890D+00 0.5033151D+01 0.1169596D+01 0.3803890D+00 0.5033151D+01
EXPONENTS  0.1169596D+01 0.3803890D+00 0.5033151D+01 0.1169596D+01 0.3803890D+00
EXPONENTS  0.1307093D+03 0.2380887D+02 0.6443608D+01 0.5033151D+01 0.1169596D+01
EXPONENTS  0.3803890D+00 0.5033151D+01 0.1169596D+01 0.3803890D+00 0.5033151D+01
EXPONENTS  0.1169596D+01 0.3803890D+00 0.5033151D+01 0.1169596D+01 0.3803890D+00
EXPONENTS  0.9910617D+02 0.1805231D+02 0.4885660D+01 0.3780456D+01 0.8784966D+00
EXPONENTS  0.2857144D+00 0.3780456D+01 0.8784966D+00 0.2857144D+00 0.3780456D+01
EXPONENTS  0.8784966D+00 0.2857144D+00 0.3780456D+01 0.8784966D+00 0.2857144D+00
EXPONENTS  0.7161684D+02 0.1304510D+02 0.3530512D+01 0.2941249D+01 0.6834831D+00
EXPONENTS  0.2222899D+00 0.2941249D+01 0.6834831D+00 0.2222899D+00 0.2941249D+01
EXPONENTS  0.6834831D+00 0.2222899D+00 0.2941249D+01 0.6834831D+00 0.2222899D+00
EXPONENTS  0.7161684D+02 0.1304510D+02 0.3530512D+01 0.2941249D+01 0.6834831D+00
EXPONENTS  0.2222899D+00 0.2941249D+01 0.6834831D+00 0.2222899D+00 0.2941249D+01
EXPONENTS  0.6834831D+00 0.2222899D+00 0.2941249D+01 0.6834831D+00 0.2222899D+00
EXPONENTS  0.7161684D+02 0.1304510D+02 0.3530512D+01 0.2941249D+01 0.6834831D+00
EXPONENTS  0.2222899D+00 0.2941249D+01 0.6834831D+00 0.2222899D+00 0.2941249D+01
EXPONENTS  0.6834831D+00 0.2222899D+00 0.2941249D+01 0.6834831D+00 0.2222899D+00
EXPONENTS  0.7161684D+02 0.1304510D+02 0.3530512D+01 0.2941249D+01 0.6834831D+00
EXPONENTS  0.2222899D+00 0.2941249D+01 0.6834831D+00 0.2222899D+00 0.2941249D+01
EXPONENTS  0.6834831D+00 0.2222899D+00 0.2941249D+01 0.6834831D+00 0.2222899D+00
EXPONENTS  0.7161684D+02 0.1304510D+02 0.3530512D+01 0.2941249D+01 0.6834831D+00
EXPONENTS  0.2222899D+00 0.2941249D+01 0.6834831D+00 0.2222899D+00 0.2941249D+01
EXPONENTS  0.6834831D+00 0.2222899D+00 0.2941249D+01 0.6834831D+00 0.2222899D+00
EXPONENTS  0.7161684D+02 0.1304510D+02 0.3530512D+01 0.2941249D+01 0.6834831D+00
EXPONENTS  0.2222899D+00 0.2941249D+01 0.6834831D+00 0.2222899D+00 0.2941249D+01
EXPONENTS  0.6834831D+00 0.2222899D+00 0.2941249D+01 0.6834831D+00 0.2222899D+00
EXPONENTS  0.7161684D+02 0.1304510D+02 0.3530512D+01 0.2941249D+01 0.6834831D+00
EXPONENTS  0.2222899D+00 0.2941249D+01 0.6834831D+00 0.2222899D+00 0.2941249D+01
EXPONENTS  0.6834831D+00 0.2222899D+00 0.2941249D+01 0.6834831D+00 0.2222899D+00
EXPONENTS  0.7161684D+02 0.1304510D+02 0.3530512D+01 0.2941249D+01 0.6834831D+00
EXPONENTS  0.2222899D+00 0.2941249D+01 0.6834831D+00 0.2222899D+00 0.2941249D+01
EXPONENTS  0.6834831D+00 0.2222899D+00 0.2941249D+01 0.6834831D+00 0.2222899D+00
EXPONENTS  0.7161684D+02 0.1304510D+02 0.3530512D+01 0.2941249D+01 0.6834831D+00
EXPONENTS  0.2222899D+00 0.2941249D+01 0.6834831D+00 0.2222899D+00 0.2941249D+01
EXPONENTS  0.6834831D+00 0.2222899D+00 0.2941249D+01 0.6834831D+00 0.2222899D+00
EXPONENTS  0.3425251D+01 0.6239137D+00 0.1688554D+00 0.3425251D+01 0.6239137D+00
EXPONENTS  0.1688554D+00 0.3425251D+01 0.6239137D+00 0.1688554D+00 0.3425251D+01
EXPONENTS  0.6239137D+00 0.1688554D+00 0.3425251D+01 0.6239137D+00 0.1688554D+00
EXPONENTS  0.3425251D+01 0.6239137D+00 0.1688554D+00 0.3425251D+01 0.6239137D+00
EXPONENTS  0.1688554D+00 0.3425251D+01 0.6239137D+00 0.1688554D+00 0.3425251D+01
EXPONENTS  0.6239137D+00 0.1688554D+00 0.3425251D+01 0.6239137D+00 0.1688554D+00
EXPONENTS  0.3425251D+01 0.6239137D+00 0.1688554D+00
MO    1     MO 0.0        OCC NO =    2.0000000  ORB. ENERGY =  -18.933598
  0.42244474D+01  0.40857016D+01  0.12733347D+01 -0.68538569D-02  0.91675873D-02
  0.69189149D-02 -0.23251882D-02 -0.14621408D-02 -0.23162766D-03 -0.31666599D-02
 -0.19912807D-02 -0.31545232D-03  0.58653037D-02  0.36882604D-02  0.58428241D-03
  0.38600010D-02  0.37332249D-02  0.11634831D-02 -0.50082347D-04  0.66989185D-04
  0.50557737D-04  0.14772857D-03  0.92895686D-04  0.14716237D-04 -0.83352844D-03
 -0.52414505D-03 -0.83033382D-04 -0.75779064D-03 -0.47651909D-03 -0.75488630D-04
 -0.61236593D-05 -0.59225367D-05 -0.18457960D-05 -0.23065858D-05  0.30852448D-05
  0.23284803D-05 -0.35299334D-05 -0.22197169D-05 -0.35164044D-06  0.95095288D-05
  0.59798469D-05  0.94730822D-06 -0.18755490D-05 -0.11793956D-05 -0.18683607D-06
 -0.34903723D-05 -0.33757362D-05 -0.10520695D-05 -0.96436463D-06  0.12899156D-05
  0.97351855D-06 -0.19716783D-05 -0.12398442D-05 -0.19641216D-06  0.12786373D-04
  0.80404144D-05  0.12737367D-05 -0.30063352D-05 -0.18904643D-05 -0.29948130D-06
 -0.90418111D-04 -0.87448461D-04 -0.27253866D-04 -0.68244408D-04  0.91282409D-04
  0.68892196D-04  0.76761793D-04  0.48269875D-04  0.76467592D-05 -0.16078723D-03
 -0.10110732D-03 -0.16017099D-04 -0.31620941D-03 -0.19884096D-03 -0.31499749D-04
 -0.11475587D-04 -0.11098688D-04 -0.34589764D-05 -0.30592775D-05  0.40920308D-05
  0.30883167D-05 -0.17586116D-04 -0.11058622D-04 -0.17518715D-05 -0.13420217D-04
 -0.84389923D-05 -0.13368782D-05 -0.70001967D-05 -0.44019115D-05 -0.69733674D-06
 -0.55454253D-05 -0.53632940D-05 -0.16715045D-05 -0.55168842D-06  0.73792783D-06
  0.55692514D-06 -0.99746963D-05 -0.62723567D-05 -0.99364668D-06 -0.56593739D-05
 -0.35587662D-05 -0.56376835D-06 -0.96349069D-05 -0.60586880D-05 -0.95979798D-06
 -0.17861235D-06 -0.17274609D-06 -0.53837410D-07 -0.37864260D-07  0.50646506D-07
  0.38223674D-07 -0.70686129D-07 -0.44449334D-07 -0.70415214D-08 -0.37298396D-06
 -0.23454233D-06 -0.37155445D-07  0.13349406D-05  0.83944650D-06  0.13298243D-06
  0.16046295D-02  0.15519278D-02  0.48366811D-03  0.77201339D-03 -0.10326303D-02
 -0.77934147D-03 -0.11481987D-02 -0.72201817D-03 -0.11437981D-03  0.14405602D-02
  0.90586289D-03  0.14350390D-03  0.40016721D-02  0.25163588D-02  0.39863351D-03
  0.12909518D-06  0.12485523D-06  0.38911923D-07 -0.48384422D-07  0.64718073D-07
  0.48843695D-07  0.94402351D-06  0.59362731D-06  0.94040540D-07  0.12621786D-05
  0.79369175D-06  0.12573411D-06  0.13486112D-05  0.84804292D-06  0.13434425D-06
  0.35303451D-08  0.34143961D-08  0.10641181D-08 -0.10992020D-07  0.14702715D-07
  0.11096359D-07  0.64977011D-07  0.40859288D-07  0.64727977D-08  0.74447288D-07
  0.46814452D-07  0.74161958D-08  0.11194980D-06  0.70397041D-07  0.11152074D-07
  0.22196048D-07  0.21467051D-07  0.66903421D-08  0.20420469D-07 -0.27314026D-07
 -0.20614303D-07  0.13199601D-07  0.83002635D-08  0.13149012D-08 -0.74035724D-08
 -0.46555650D-08 -0.73751971D-09 -0.11663740D-06 -0.73344725D-07 -0.11619037D-07
 -0.84505871D-05 -0.81730400D-05 -0.25471796D-05  0.84939249D-06  0.82149544D-06
  0.25602425D-06 -0.93717947D-04 -0.90639918D-04 -0.28248503D-04  0.31531296D-05
  0.30495697D-05  0.95041766D-06  0.11507601D-05  0.11129651D-05  0.34686261D-06
  0.30431631D-05  0.29432148D-05  0.91727151D-06 -0.13276766D-04 -0.12840710D-04
 -0.40018884D-05  0.17509494D-07  0.16934421D-07  0.52777192D-08 -0.21599947D-07
 -0.20890529D-07 -0.65106653D-08 -0.35151940D-09 -0.33997426D-09 -0.10595513D-09
 -0.17546438D-02 -0.16970151D-02 -0.52888548D-03
MO    2     MO 0.0        OCC NO =    2.0000000  ORB. ENERGY =  -18.869625
 -0.41961307D-02 -0.40583149D-02 -0.12647995D-02 -0.59844979D-04  0.80047494D-04
  0.60413038D-04 -0.26049754D-03 -0.16380784D-03 -0.25949915D-04 -0.76213926D-03
 -0.47925362D-03 -0.75921825D-04  0.50047488D-03  0.31471203D-03  0.49855674D-04
  0.42246697D+01  0.40859166D+01  0.12734017D+01 -0.68981440D-02  0.92268248D-02
  0.69636223D-02  0.31382488D-02  0.19734151D-02  0.31262210D-03  0.55983361D-02
  0.35203840D-02  0.55768797D-03 -0.73591077D-02 -0.46276044D-02 -0.73309028D-03
 -0.38126475D-04 -0.36874267D-04 -0.11492098D-04 -0.11189146D-04  0.14966387D-04
  0.11295356D-04 -0.56106655D-04 -0.35281370D-04 -0.55891618D-05 -0.12212273D-03
 -0.76794050D-04 -0.12165468D-04  0.28871654D-04  0.18155271D-04  0.28760999D-05
 -0.33766617D-04 -0.32657602D-04 -0.10177948D-04 -0.70798067D-05  0.94698134D-05
  0.71470095D-05  0.17813337D-04  0.11201504D-04  0.17745064D-05 -0.78983935D-04
 -0.49667218D-04 -0.78681218D-05  0.22930839D-04  0.14419527D-04  0.22842953D-05
 -0.42449395D-04 -0.41055207D-04 -0.12795115D-04 -0.13766778D-04  0.18414178D-04
  0.13897455D-04 -0.13913137D-03 -0.87489541D-04 -0.13859813D-04 -0.63452115D-04
 -0.39900393D-04 -0.63208925D-05  0.38817604D-03  0.24409551D-03  0.38668830D-04
 -0.26564780D-05 -0.25692299D-05 -0.80071674D-06  0.19558517D-05 -0.26161097D-05
 -0.19744170D-05 -0.18299826D-05 -0.11507422D-05 -0.18229690D-06 -0.14037723D-04
 -0.88272971D-05 -0.13983922D-05 -0.63485530D-05 -0.39921405D-05 -0.63242212D-06
 -0.20253875D-04 -0.19588666D-04 -0.61049316D-05 -0.76955574D-05  0.10293430D-04
  0.77686050D-05 -0.36191334D-04 -0.22758082D-04 -0.36052625D-05 -0.17927252D-04
 -0.11273137D-04 -0.17858544D-05  0.91239706D-05  0.57373976D-05  0.90890017D-06
 -0.62313969D-06 -0.60267358D-06 -0.18782703D-06 -0.53170450D-06  0.71119772D-06
  0.53675153D-06 -0.11919677D-05 -0.74954126D-06 -0.11873993D-06  0.11427156D-05
  0.71857021D-06  0.11383359D-06  0.40636364D-05  0.25553236D-05  0.40480619D-06
  0.18419208D-02  0.17814256D-02  0.55519255D-03  0.12620178D-02 -0.16880508D-02
 -0.12739971D-02  0.20342300D-02  0.12791784D-02  0.20264335D-03  0.36927016D-02
  0.23220699D-02  0.36785488D-03 -0.47547126D-02 -0.29898909D-02 -0.47364895D-03
  0.31389780D-06  0.30358828D-06  0.94615208D-07 -0.21468542D-06  0.28715910D-06
  0.21672326D-06  0.90009598D-06  0.56600451D-06  0.89664624D-07  0.40239240D-05
  0.25303514D-05  0.40085018D-06  0.95448975D-06  0.60020877D-06  0.95083153D-07
 -0.17591842D-06 -0.17014064D-06 -0.53025406D-07 -0.86582487D-07  0.11581107D-06
  0.87404343D-07 -0.55803990D-06 -0.35091046D-06 -0.55590113D-07  0.33204066D-07
  0.20879608D-07  0.33076807D-08 -0.26003656D-07 -0.16351797D-07 -0.25903994D-08
 -0.57470008D-07 -0.55582489D-07 -0.17322634D-07  0.55113810D-07 -0.73719173D-07
 -0.55636960D-07 -0.11668316D-06 -0.73373504D-07 -0.11623596D-07  0.21217569D-06
  0.13342177D-06  0.21136250D-07 -0.28333725D-06 -0.17817007D-06 -0.28225132D-07
 -0.20594783D-04 -0.19918378D-04 -0.62076884D-05  0.69229221D-05  0.66955489D-05
  0.20867101D-05  0.48001262D-05  0.46424731D-05  0.14468561D-05 -0.17784549D-04
 -0.17200441D-04 -0.53606262D-05  0.23658366D-06  0.22881342D-06  0.71311148D-07
  0.74054887D-05  0.71622663D-05  0.22321656D-05 -0.31705929D-04 -0.30664594D-04
 -0.95568147D-05  0.50878546D-06  0.49207515D-06  0.15335833D-06  0.10199876D-07
  0.98648756D-08  0.30744508D-08  0.23031957D-07  0.22275506D-07  0.69423023D-08
 -0.36715016D-04 -0.35509165D-04 -0.11066656D-04
MO    3     MO 0.0        OCC NO =    2.0000000  ORB. ENERGY =  -14.117667
 -0.12395608D-04 -0.11988492D-04 -0.37362894D-05 -0.23931841D-05  0.32010770D-05
  0.24159006D-05 -0.54760388D-04 -0.34434802D-04 -0.54550511D-05 -0.70128249D-05
 -0.44098525D-05 -0.69859473D-06  0.26339183D-04  0.16562785D-04  0.26238235D-05
 -0.86044042D-04 -0.83218052D-04 -0.25935432D-04 -0.17005673D-04  0.22746461D-04
  0.17167093D-04 -0.45663623D-04 -0.28714512D-04 -0.45488611D-05  0.11630482D-03
  0.73135590D-04  0.11585906D-04  0.30480708D-04  0.19167087D-04  0.30363886D-05
  0.34290024D+01  0.33163818D+01  0.10335714D+01 -0.67902738D-02  0.90825398D-02
  0.68547283D-02  0.41394867D-02  0.26030203D-02  0.41236215D-03  0.15645641D-02
  0.98383992D-03  0.15585677D-03  0.47871767D-02  0.30103051D-02  0.47688291D-03
 -0.29592726D-04 -0.28620797D-04 -0.89198522D-05 -0.31720051D-04  0.42428130D-04
  0.32021143D-04 -0.31339864D-03 -0.19707347D-03 -0.31219749D-04  0.51100074D-04
  0.32133098D-04  0.50904225D-05 -0.56589895D-04 -0.35585244D-04 -0.56373006D-05
  0.15723621D-02  0.15207201D-02  0.47394204D-03  0.91400018D-03 -0.12225491D-02
 -0.92267603D-03  0.39896309D-02  0.25087870D-02  0.39743401D-03 -0.17380255D-02
 -0.10929171D-02 -0.17313642D-03 -0.82715964D-03 -0.52014018D-03 -0.82398944D-04
  0.25995431D-04  0.25141650D-04  0.78355540D-05  0.64249013D-05 -0.85938246D-05
 -0.64858876D-05  0.40898610D-04  0.25718144D-04  0.40741860D-05  0.29504877D-04
  0.18553459D-04  0.29391796D-05  0.62828640D-04  0.39508335D-04  0.62587840D-05
 -0.19406527D-06 -0.18769148D-06 -0.58495237D-07 -0.83686180D-06  0.11193703D-05
  0.84480543D-06 -0.74856511D-06 -0.47071783D-06 -0.74569612D-07 -0.19204887D-05
 -0.12076548D-05 -0.19131282D-06 -0.63506378D-05 -0.39934515D-05 -0.63262981D-06
  0.13237420D-05  0.12802657D-05  0.39900289D-06 -0.87988068D-06  0.11769115D-05
  0.88823266D-06  0.20420251D-05  0.12840802D-05  0.20341987D-06 -0.68577342D-05
 -0.43123273D-05 -0.68314510D-06  0.38757070D-06  0.24371486D-06  0.38608528D-07
  0.82213196D-05  0.79513024D-05  0.24780737D-05 -0.37983947D-04  0.50806598D-04
  0.38344497D-04 -0.53237709D-04 -0.33477300D-04 -0.53033667D-05  0.18980228D-03
  0.11935276D-03  0.18907483D-04  0.78160120D-04  0.49149181D-04  0.77860560D-05
  0.22097387D-06  0.21371631D-06  0.66606038D-07  0.25158116D-06 -0.33651013D-06
 -0.25396922D-06  0.60249894D-06  0.37886750D-06  0.60018978D-07 -0.75608004D-06
 -0.47544342D-06 -0.75318226D-07 -0.87490544D-07 -0.55016402D-07 -0.87155224D-08
  0.27403391D-06  0.26503367D-06  0.82599417D-07  0.37161737D-06 -0.49706825D-06
 -0.37514482D-06  0.90463692D-06  0.56885997D-06  0.90116977D-07 -0.23906539D-06
 -0.15033073D-06 -0.23814913D-07 -0.13683185D-05 -0.86043537D-06 -0.13630742D-06
 -0.44427277D-07 -0.42968129D-07 -0.13391289D-07 -0.69575832D-07  0.93063296D-07
  0.70236258D-07 -0.24019735D-06 -0.15104254D-06 -0.23927676D-07  0.52335492D-07
  0.32909962D-07  0.52134909D-08 -0.67234815D-07 -0.42279056D-07 -0.66977128D-08
  0.44067320D-04  0.42619993D-04  0.13282790D-04  0.54495306D-04  0.52705488D-04
  0.16425998D-04  0.85842094D-04  0.83022736D-04  0.25874561D-04 -0.17891850D-05
 -0.17304218D-05 -0.53929690D-06 -0.15429267D-05 -0.14922515D-05 -0.46506961D-06
 -0.21588010D-02 -0.20878984D-02 -0.65070673D-03 -0.21564108D-02 -0.20855866D-02
 -0.64998625D-03  0.22158120D-07  0.21430369D-07  0.66789100D-08  0.49939928D-08
  0.48299724D-08  0.15052914D-08 -0.56066414D-09 -0.54224995D-09 -0.16899562D-09
  0.15454776D-05  0.14947186D-05  0.46583851D-06
MO    4     MO 0.0        OCC NO =    2.0000000  ORB. ENERGY =  -10.100416
  0.26305498D-02  0.25441532D-02  0.79290144D-03  0.12904529D-02 -0.17260850D-02
 -0.13027021D-02  0.15072750D-02  0.94781495D-03  0.15014981D-03 -0.28833825D-02
 -0.18131483D-02 -0.28723315D-03 -0.56182963D-02 -0.35329355D-02 -0.55967634D-03
  0.23235510D-02  0.22472374D-02  0.70036575D-03  0.17978108D-02 -0.24047171D-02
 -0.18148759D-02 -0.17083257D-02 -0.10742410D-02 -0.17017783D-03 -0.30223488D-02
 -0.19005340D-02 -0.30107652D-03  0.40326842D-02  0.25358600D-02  0.40172283D-03
  0.34337658D-04  0.33209888D-04  0.10350071D-04 -0.67896013D-04  0.90816403D-04
  0.68540494D-04  0.23742173D-03  0.14929716D-03  0.23651178D-04  0.29430496D-03
  0.18506686D-03  0.29317700D-04  0.15336164D-03  0.96437913D-04  0.15277386D-04
 -0.13282801D-02 -0.12846546D-02 -0.40037074D-03 -0.34894672D-04  0.46674442D-04
  0.35225898D-04 -0.70860294D-04 -0.44558854D-04 -0.70588712D-05  0.24928725D-03
  0.15675852D-03  0.24833183D-04  0.19451275D-05  0.12231484D-05  0.19376725D-06
 -0.31652331D-01 -0.30612757D-01 -0.95406591D-02  0.11236040D-02 -0.15029111D-02
 -0.11342694D-02  0.57995824D-03  0.36469330D-03  0.57773546D-04  0.44711630D-02
  0.28115873D-02  0.44540266D-03 -0.31194426D-04 -0.19615892D-04 -0.31074869D-05
 -0.85105899D-03 -0.82310720D-03 -0.25652656D-03  0.11526075D-04 -0.15417057D-04
 -0.11635483D-04  0.10746623D-03  0.67577650D-04  0.10705435D-04  0.13374240D-03
  0.84100810D-04  0.13322981D-04  0.51474072D-04  0.32368278D-04  0.51276790D-05
 -0.38057092D-03 -0.36807163D-03 -0.11471185D-03 -0.60722009D-05  0.81220592D-05
  0.61298393D-05  0.10201878D-03  0.64152145D-04  0.10162778D-04  0.13014016D-04
  0.81835622D-05  0.12964137D-05  0.10767868D-03  0.67711244D-04  0.10726599D-04
  0.22589124D-04  0.21847217D-04  0.68088234D-05  0.21019001D-05 -0.28114612D-05
 -0.21218517D-05 -0.76408660D-05 -0.48047816D-05 -0.76115813D-06 -0.11979319D-04
 -0.75329172D-05 -0.11933406D-05 -0.27443596D-04 -0.17257270D-04 -0.27338414D-05
  0.26839085D+01  0.25957595D+01  0.80898484D+00 -0.60358482D-02  0.80734345D-02
  0.60931415D-02 -0.19508102D-03 -0.12267218D-03 -0.19433335D-04 -0.30272057D-03
 -0.19035882D-03 -0.30156035D-04  0.43818531D-03  0.27554268D-03  0.43650590D-04
 -0.70182277D-06 -0.67877243D-06 -0.21154372D-06  0.35015894D-05 -0.46836587D-05
 -0.35348271D-05 -0.81785020D-07 -0.51428615D-07 -0.81471567D-08 -0.15920889D-04
 -0.10011482D-04 -0.15859870D-05 -0.22017186D-04 -0.13844998D-04 -0.21932802D-05
  0.22681165D-06  0.21936236D-06  0.68365665D-07  0.88076093D-07 -0.11780889D-06
 -0.88912127D-07  0.72186888D-06  0.45393052D-06  0.71910221D-07  0.51198418D-06
  0.32194939D-06  0.51002193D-07  0.19966976D-05  0.12555770D-05  0.19890450D-06
  0.28342911D-05  0.27412030D-05  0.85431323D-06 -0.13779049D-06  0.18430592D-06
  0.13909843D-06 -0.81644095D-06 -0.51339998D-06 -0.81331182D-07  0.12070177D-05
  0.75900509D-06  0.12023916D-06  0.12235494D-05  0.76940071D-06  0.12188600D-06
 -0.58956793D-04 -0.57020444D-04 -0.17770782D-04 -0.56150605D-04 -0.54306421D-04
 -0.16924939D-04  0.18540431D-04  0.17931498D-04  0.55884647D-05 -0.63598659D-04
 -0.61509854D-04 -0.19169935D-04 -0.69940042D-08 -0.67642964D-08 -0.21081357D-08
 -0.53535449D-04 -0.51777155D-04 -0.16136678D-04 -0.10315412D-03 -0.99766174D-04
 -0.31092759D-04  0.13244752D-05  0.12809748D-05  0.39922389D-06  0.95578636D-07
  0.92439496D-07  0.28809353D-07  0.78721663D-07  0.76136166D-07  0.23728317D-07
 -0.47071407D-03 -0.45525416D-03 -0.14188284D-03
MO    5     MO 0.0        OCC NO =    2.0000000  ORB. ENERGY =  -10.059001
 -0.96959769D-04 -0.93775267D-04 -0.29225655D-04 -0.76888175D-04  0.10284415D-03
  0.77618011D-04 -0.37117391D-04 -0.23340411D-04 -0.36975133D-05  0.18862521D-03
  0.11861259D-03  0.18790228D-04  0.14162881D-03  0.89059997D-04  0.14108600D-04
 -0.55481962D-04 -0.53659738D-04 -0.16723396D-04 -0.10186720D-04  0.13625561D-04
  0.10283414D-04 -0.35067331D-04 -0.22051279D-04 -0.34932931D-05  0.49956391D-03
  0.31413919D-03  0.49764926D-04  0.25934758D-03  0.16308472D-03  0.25835359D-04
  0.26708785D-02  0.25831574D-02  0.80505734D-03  0.11487605D-02 -0.15365600D-02
 -0.11596648D-02 -0.52077615D-02 -0.32747802D-02 -0.51878020D-03  0.23155479D-02
  0.14560787D-02  0.23066732D-03  0.12288552D-02  0.77273710D-03  0.12241454D-03
 -0.49599575D-01 -0.47970550D-01 -0.14950325D-01  0.12166322D-02 -0.16273439D-02
 -0.12281807D-02  0.33325856D-02  0.20956192D-02  0.33198130D-03  0.11854136D-02
  0.74541987D-03  0.11808703D-03  0.31295948D-02  0.19679732D-02  0.31176001D-03
  0.26814430D+01  0.25933749D+01  0.80824168D+00 -0.68789559D-02  0.92011593D-02
  0.69442522D-02  0.21795191D-03  0.13705401D-03  0.21711658D-04 -0.19076437D-03
 -0.11995776D-03 -0.19003324D-04 -0.57127298D-03 -0.35923178D-03 -0.56908349D-04
 -0.20545736D-02 -0.19870941D-02 -0.61929045D-03 -0.13922758D-04  0.18622813D-04
  0.14054915D-04 -0.13899157D-03 -0.87401626D-04 -0.13845886D-04  0.77954450D-04
  0.49019850D-04  0.77655678D-05  0.57446616D-04  0.36123973D-04  0.57226443D-05
  0.34717022D-03  0.33576792D-03  0.10464420D-03 -0.89816099D-05  0.12013629D-04
  0.90668649D-05 -0.36901287D-04 -0.23204520D-04 -0.36759858D-05  0.23858772D-04
  0.15003036D-04  0.23767330D-05 -0.31246917D-04 -0.19648900D-04 -0.31127159D-05
  0.46815981D-03  0.45278379D-03  0.14111293D-03 -0.10465455D-04  0.13998391D-04
  0.10564795D-04 -0.63967979D-04 -0.40224782D-04 -0.63722813D-05 -0.32474908D-04
 -0.20421094D-04 -0.32350443D-05  0.87821843D-05  0.55224732D-05  0.87485254D-06
  0.35724402D-01  0.34551087D-01  0.10768065D-01  0.10564076D-02 -0.14130304D-02
 -0.10664352D-02 -0.51939331D-03 -0.32660845D-03 -0.51740266D-04 -0.48561646D-02
 -0.30536866D-02 -0.48375526D-03 -0.28481736D-04 -0.17910080D-04 -0.28372575D-05
  0.73531673D-05  0.71116633D-05  0.22163948D-05 -0.65908170D-06  0.88157501D-06
  0.66533781D-06 -0.11859198D-05 -0.74573817D-06 -0.11813745D-06  0.20696830D-05
  0.13014722D-05  0.20617506D-06  0.44227323D-05  0.27811328D-05  0.44057815D-06
  0.26043873D-05  0.25188500D-05  0.78501551D-06 -0.87419961D-06  0.11693126D-05
  0.88249767D-06 -0.12924161D-05 -0.81270595D-06 -0.12874628D-06  0.39707040D-05
  0.24968852D-05  0.39554857D-06  0.34660367D-05  0.21795369D-05  0.34527526D-06
  0.41266145D-05  0.39910819D-05  0.12438459D-05 -0.15449938D-06  0.20665541D-06
  0.15596592D-06 -0.96899544D-06 -0.60933033D-06 -0.96528162D-07 -0.40712830D-06
 -0.25601320D-06 -0.40556792D-07 -0.66338140D-06 -0.41715202D-06 -0.66083889D-07
  0.59534012D-04  0.57578704D-04  0.17944767D-04  0.67735068D-04  0.65510409D-04
  0.20416733D-04 -0.25452487D-02 -0.24616537D-02 -0.76718993D-03  0.34122925D-05
  0.33002207D-05  0.10285347D-05  0.18794533D-04  0.18177254D-04  0.56650561D-05
 -0.13974181D-03 -0.13515219D-03 -0.42121035D-04 -0.15435483D-03 -0.14928527D-03
 -0.46525697D-04 -0.30324545D-07 -0.29328579D-07 -0.91404372D-08 -0.23044900D-06
 -0.22288024D-06 -0.69462037D-07  0.52382888D-07  0.50662448D-07  0.15789272D-07
 -0.43733295D-04 -0.42296939D-04 -0.13182108D-04
MO    6     MO 0.0        OCC NO =    2.0000000  ORB. ENERGY =  -10.031786
 -0.72883661D-05 -0.70489904D-05 -0.21968624D-05  0.28443516D-06 -0.38045501D-06
 -0.28713507D-06  0.58799564D-04  0.36974744D-04  0.58574207D-05 -0.79849447D-06
 -0.50211475D-06 -0.79543412D-07  0.32531000D-04  0.20456366D-04  0.32406321D-05
 -0.77470549D-04 -0.74926142D-04 -0.23351206D-04 -0.25289748D-04  0.33827080D-04
  0.25529802D-04  0.53925609D-04  0.33909870D-04  0.53718931D-05  0.12368558D-03
  0.77776810D-04  0.12321153D-04 -0.11717455D-04 -0.73682499D-05 -0.11672546D-05
  0.10268563D-04  0.99313070D-05  0.30951546D-05 -0.28246054D-04  0.37781379D-04
  0.28514170D-04  0.10582060D-03  0.66542830D-04  0.10541502D-04  0.56802697D-04
  0.35719060D-04  0.56584992D-05  0.10998388D-03  0.69160813D-04  0.10956235D-04
  0.26794676D+01  0.25914644D+01  0.80764625D+00 -0.71884645D-02  0.96151520D-02
  0.72566987D-02  0.29745857D-03  0.18704993D-03  0.29631851D-04  0.26422671D-03
  0.16615285D-03  0.26321403D-04  0.48529997D-03  0.30516965D-03  0.48343999D-04
  0.53563334D-01  0.51804125D-01  0.16145083D-01  0.96096121D-03 -0.12853633D-02
 -0.97008282D-03 -0.32668142D-02 -0.20542605D-02 -0.32542937D-03 -0.12529283D-02
 -0.78787492D-03 -0.12481262D-03 -0.31865330D-02 -0.20037775D-02 -0.31743202D-03
 -0.93787592D-01 -0.90707276D-01 -0.28269496D-01  0.14221833D-02 -0.19022851D-02
 -0.14356829D-02  0.44835970D-02  0.28194061D-02  0.44664130D-03 -0.17477596D-02
 -0.10990382D-02 -0.17410611D-03 -0.11312836D-02 -0.71138150D-03 -0.11269478D-03
  0.51833038D-03  0.50130657D-03  0.15623536D-03 -0.90383325D-04  0.12089500D-03
  0.91241260D-04 -0.19776143D-03 -0.12435769D-03 -0.19700348D-04  0.20480397D-03
  0.12878623D-03  0.20401903D-04  0.12379754D-04  0.77847212D-05  0.12332306D-05
  0.53951583D-03  0.52179622D-03  0.16262109D-03 -0.92335973D-04  0.12350682D-03
  0.93212442D-04 -0.21625254D-03 -0.13598540D-03 -0.21542372D-04  0.18204783D-04
  0.11447656D-04  0.18135010D-05  0.15090310D-03  0.94891920D-04  0.15032474D-04
  0.21901850D-02  0.21182516D-02  0.66016649D-03  0.13752689D-04 -0.18395332D-04
 -0.13883232D-04 -0.53164812D-04 -0.33431460D-04 -0.52961050D-05 -0.10637463D-04
 -0.66891222D-05 -0.10596693D-05 -0.77717889D-04 -0.48871094D-04 -0.77420024D-05
 -0.80209746D-03 -0.77575374D-03 -0.24176856D-03  0.10723519D-04 -0.14343572D-04
 -0.10825308D-04  0.20904086D-04  0.13145050D-04  0.20823968D-05 -0.55385528D-04
 -0.34827906D-04 -0.55173255D-05  0.16317518D-04  0.10260893D-04  0.16254979D-05
 -0.84823476D-03 -0.82037573D-03 -0.25567528D-03  0.12147067D-04 -0.16247683D-04
 -0.12262369D-04  0.40505248D-04  0.25470787D-04  0.40350005D-05  0.20500745D-04
  0.12891419D-04  0.20422173D-05 -0.45513106D-04 -0.28619862D-04 -0.45338670D-05
 -0.23871909D-03 -0.23087871D-03 -0.71954808D-04 -0.24407323D-05  0.32646766D-05
  0.24639002D-05  0.15907860D-04  0.10003290D-04  0.15846891D-05 -0.59243534D-05
 -0.37253924D-05 -0.59016475D-06 -0.35784239D-05 -0.22502090D-05 -0.35647091D-06
 -0.25456087D-02 -0.24620019D-02 -0.76729846D-03 -0.25445411D-02 -0.24609694D-02
 -0.76697666D-03 -0.16664498D-04 -0.16117177D-04 -0.50230202D-05 -0.24516519D-04
 -0.23711310D-04 -0.73897797D-05 -0.40896882D-04 -0.39553684D-04 -0.12327156D-04
 -0.15995226D-04 -0.15469886D-04 -0.48212878D-05 -0.13461262D-04 -0.13019146D-04
 -0.40574992D-05 -0.24527266D-05 -0.23721704D-05 -0.73930189D-06 -0.20634335D-05
 -0.19956630D-05 -0.62196100D-06 -0.28098014D-05 -0.27175175D-05 -0.84693152D-06
  0.28104157D-06  0.27181117D-06  0.84711670D-07
MO    7     MO 0.0        OCC NO =    2.0000000  ORB. ENERGY =  -10.017747
 -0.26847761D-04 -0.25965986D-04 -0.80924637D-05 -0.10727967D-04  0.14349523D-04
  0.10829799D-04 -0.37005122D-05 -0.23269814D-05 -0.36863295D-06  0.25120021D-04
  0.15796143D-04  0.25023744D-05  0.56797592D-04  0.35715850D-04  0.56579907D-05
 -0.11881332D-04 -0.11491107D-04 -0.35812762D-05 -0.11553348D-05  0.15453536D-05
  0.11663014D-05  0.60768033D-04  0.38212570D-04  0.60535130D-05  0.60269310D-05
  0.37898960D-05  0.60038320D-06  0.12066453D-04  0.75877091D-05  0.12020206D-05
  0.64279667D-04  0.62168496D-04  0.19375205D-04  0.19503331D-04 -0.26087281D-04
 -0.19688460D-04 -0.12046753D-03 -0.75753216D-04 -0.12000582D-04  0.39255879D-04
  0.24685150D-04  0.39105425D-05 -0.68341079D-05 -0.42974704D-05 -0.68079152D-06
  0.97681629D-01  0.94473419D-01  0.29443238D-01  0.87750341D-03 -0.11737317D-02
 -0.88583283D-03 -0.43454530D-02 -0.27325375D-02 -0.43287984D-03  0.17036377D-02
  0.10712931D-02  0.16971083D-03  0.10760813D-02  0.67666879D-03  0.10719570D-03
  0.41863322D-02  0.40488382D-02  0.12618460D-02  0.13912074D-04 -0.18608523D-04
 -0.14044130D-04 -0.29289764D-03 -0.18418189D-03 -0.29177506D-04  0.66674750D-04
  0.41926872D-04  0.66419209D-05 -0.87858483D-04 -0.55247772D-04 -0.87521753D-05
  0.26782380D+01  0.25902752D+01  0.80727564D+00 -0.69903801D-02  0.93501981D-02
  0.70567340D-02  0.15070042D-02  0.94764471D-03  0.15012284D-03 -0.67504294D-03
 -0.42448512D-03 -0.67245574D-04 -0.51045513D-03 -0.32098788D-03 -0.50849873D-04
 -0.76075170D-01 -0.73576592D-01 -0.22930610D-01  0.16778281D-02 -0.22442307D-02
 -0.16937544D-02  0.16285362D-02  0.10240673D-02  0.16222946D-03 -0.46221123D-02
 -0.29065082D-02 -0.46043974D-03  0.22098584D-02  0.13896183D-02  0.22013888D-03