 opt phenylalanine m062x
GAUSSIAN             44 MOL ORBITALS    213 PRIMITIVES       23 NUCLEI
  O    1    (CENTRE  1)  -1.92073150 -2.56038528 -2.61888724  CHARGE =  8.0
  O    2    (CENTRE  2)  -4.56421724 -2.92797739  0.86715603  CHARGE =  8.0
  N    3    (CENTRE  3)  -5.86649925  2.29265714 -0.04975023  CHARGE =  7.0
  C    4    (CENTRE  4)  -1.24860324  2.19682205  1.48613784  CHARGE =  6.0
  C    5    (CENTRE  5)  -3.23306193  1.36124253 -0.55430914  CHARGE =  6.0
  C    6    (CENTRE  6)   1.39171404  1.18228015  0.88757266  CHARGE =  6.0
  C    7    (CENTRE  7)   2.25357634 -1.07268825  1.98334045  CHARGE =  6.0
  C    8    (CENTRE  8)   2.96015267  2.45520781 -0.83083636  CHARGE =  6.0
  C    9    (CENTRE  9)  -3.37080236 -1.58215681 -0.62962545  CHARGE =  6.0
  C   10    (CENTRE 10)   4.64147434 -2.03030529  1.38511632  CHARGE =  6.0
  C   11    (CENTRE 11)   5.34741196  1.50085974 -1.43177320  CHARGE =  6.0
  C   12    (CENTRE 12)   6.19369810 -0.74501950 -0.32378619  CHARGE =  6.0
  H   13    (CENTRE 13)  -1.87425467  1.49969847  3.33966026  CHARGE =  1.0
  H   14    (CENTRE 14)  -1.21524139  4.27337099  1.54417993  CHARGE =  1.0
  H   15    (CENTRE 15)  -2.60924384  2.04564717 -2.42154920  CHARGE =  1.0
  H   16    (CENTRE 16)   1.04262201 -2.07838980  3.32344831  CHARGE =  1.0
  H   17    (CENTRE 17)   2.30199869  4.21306370 -1.69650323  CHARGE =  1.0
  H   18    (CENTRE 18)  -5.66380634  4.18445426  0.53850781  CHARGE =  1.0
  H   19    (CENTRE 19)  -6.41280454  1.34555178  1.61670605  CHARGE =  1.0
  H   20    (CENTRE 20)   5.29491635 -3.78550987  2.25851215  CHARGE =  1.0
  H   21    (CENTRE 21)   6.55473908  2.51348252 -2.76875522  CHARGE =  1.0
  H   22    (CENTRE 22)   8.06297370 -1.49101898 -0.79044219  CHARGE =  1.0
  H   23    (CENTRE 23)  -2.15017394 -4.45950348 -2.41268495  CHARGE =  1.0
CENTRE ASSIGNMENTS    1  1  1  1  1  1  1  1  1  1  1  1  1  1  1  2  2  2  2  2
CENTRE ASSIGNMENTS    2  2  2  2  2  2  2  2  2  2  3  3  3  3  3  3  3  3  3  3
CENTRE ASSIGNMENTS    3  3  3  3  3  4  4  4  4  4  4  4  4  4  4  4  4  4  4  4
CENTRE ASSIGNMENTS    5  5  5  5  5  5  5  5  5  5  5  5  5  5  5  6  6  6  6  6
CENTRE ASSIGNMENTS    6  6  6  6  6  6  6  6  6  6  7  7  7  7  7  7  7  7  7  7
CENTRE ASSIGNMENTS    7  7  7  7  7  8  8  8  8  8  8  8  8  8  8  8  8  8  8  8
CENTRE ASSIGNMENTS    9  9  9  9  9  9  9  9  9  9  9  9  9  9  9 10 10 10 10 10
CENTRE ASSIGNMENTS   10 10 10 10 10 10 10 10 10 10 11 11 11 11 11 11 11 11 11 11
CENTRE ASSIGNMENTS   11 11 11 11 11 12 12 12 12 12 12 12 12 12 12 12 12 12 12 12
CENTRE ASSIGNMENTS   13 13 13 14 14 14 15 15 15 16 16 16 17 17 17 18 18 18 19 19
CENTRE ASSIGNMENTS   19 20 20 20 21 21 21 22 22 22 23 23 23
TYPE ASSIGNMENTS      1  1  1  1  1  1  2  2  2  3  3  3  4  4  4  1  1  1  1  1
TYPE ASSIGNMENTS      1  2  2  2  3  3  3  4  4  4  1  1  1  1  1  1  2  2  2  3
TYPE ASSIGNMENTS      3  3  4  4  4  1  1  1  1  1  1  2  2  2  3  3  3  4  4  4
TYPE ASSIGNMENTS      1  1  1  1  1  1  2  2  2  3  3  3  4  4  4  1  1  1  1  1
TYPE ASSIGNMENTS      1  2  2  2  3  3  3  4  4  4  1  1  1  1  1  1  2  2  2  3
TYPE ASSIGNMENTS      3  3  4  4  4  1  1  1  1  1  1  2  2  2  3  3  3  4  4  4
TYPE ASSIGNMENTS      1  1  1  1  1  1  2  2  2  3  3  3  4  4  4  1  1  1  1  1
TYPE ASSIGNMENTS      1  2  2  2  3  3  3  4  4  4  1  1  1  1  1  1  2  2  2  3
TYPE ASSIGNMENTS      3  3  4  4  4  1  1  1  1  1  1  2  2  2  3  3  3  4  4  4
TYPE ASSIGNMENTS      1  1  1  1  1  1  1  1  1  1  1  1  1  1  1  1  1  1  1  1
TYPE ASSIGNMENTS      1  1  1  1  1  1  1  1  1  1  1  1  1
EXPONENTS  0.1307093D+03 0.2380887D+02 0.6443608D+01 0.5033151D+01 0.1169596D+01
EXPONENTS  0.3803890D+00 0.5033151D+01 0.1169596D+01 0.3803890D+00 0.5033151D+01
EXPONENTS  0.1169596D+01 0.3803890D+00 0.5033151D+01 0.1169596D+01 0.3803890D+00
EXPONENTS  0.1307093D+03 0.2380887D+02 0.6443608D+01 0.5033151D+01 0.1169596D+01
EXPONENTS  0.3803890D+00 0.5033151D+01 0.1169596D+01 0.3803890D+00 0.5033151D+01
EXPONENTS  0.1169596D+01 0.3803890D+00 0.5033151D+01 0.1169596D+01 0.3803890D+00
EXPONENTS  0.9910617D+02 0.1805231D+02 0.4885660D+01 0.3780456D+01 0.8784966D+00
EXPONENTS  0.2857144D+00 0.3780456D+01 0.8784966D+00 0.2857144D+00 0.3780456D+01
EXPONENTS  0.8784966D+00 0.2857144D+00 0.3780456D+01 0.8784966D+00 0.2857144D+00
EXPONENTS  0.7161684D+02 0.1304510D+02 0.3530512D+01 0.2941249D+01 0.6834831D+00
EXPONENTS  0.2222899D+00 0.2941249D+01 0.6834831D+00 0.2222899D+00 0.2941249D+01
EXPONENTS  0.6834831D+00 0.2222899D+00 0.2941249D+01 0.6834831D+00 0.2222899D+00
EXPONENTS  0.7161684D+02 0.1304510D+02 0.3530512D+01 0.2941249D+01 0.6834831D+00
EXPONENTS  0.2222899D+00 0.2941249D+01 0.6834831D+00 0.2222899D+00 0.2941249D+01
EXPONENTS  0.6834831D+00 0.2222899D+00 0.2941249D+01 0.6834831D+00 0.2222899D+00
EXPONENTS  0.7161684D+02 0.1304510D+02 0.3530512D+01 0.2941249D+01 0.6834831D+00
EXPONENTS  0.2222899D+00 0.2941249D+01 0.6834831D+00 0.2222899D+00 0.2941249D+01
EXPONENTS  0.6834831D+00 0.2222899D+00 0.2941249D+01 0.6834831D+00 0.2222899D+00
EXPONENTS  0.7161684D+02 0.1304510D+02 0.3530512D+01 0.2941249D+01 0.6834831D+00
EXPONENTS  0.2222899D+00 0.2941249D+01 0.6834831D+00 0.2222899D+00 0.2941249D+01
EXPONENTS  0.6834831D+00 0.2222899D+00 0.2941249D+01 0.6834831D+00 0.2222899D+00
EXPONENTS  0.7161684D+02 0.1304510D+02 0.3530512D+01 0.2941249D+01 0.6834831D+00
EXPONENTS  0.2222899D+00 0.2941249D+01 0.6834831D+00 0.2222899D+00 0.2941249D+01
EXPONENTS  0.6834831D+00 0.2222899D+00 0.2941249D+01 0.6834831D+00 0.2222899D+00
EXPONENTS  0.7161684D+02 0.1304510D+02 0.3530512D+01 0.2941249D+01 0.6834831D+00
EXPONENTS  0.2222899D+00 0.2941249D+01 0.6834831D+00 0.2222899D+00 0.2941249D+01
EXPONENTS  0.6834831D+00 0.2222899D+00 0.2941249D+01 0.6834831D+00 0.2222899D+00
EXPONENTS  0.7161684D+02 0.1304510D+02 0.3530512D+01 0.2941249D+01 0.6834831D+00
EXPONENTS  0.2222899D+00 0.2941249D+01 0.6834831D+00 0.2222899D+00 0.2941249D+01
EXPONENTS  0.6834831D+00 0.2222899D+00 0.2941249D+01 0.6834831D+00 0.2222899D+00
EXPONENTS  0.7161684D+02 0.1304510D+02 0.3530512D+01 0.2941249D+01 0.6834831D+00
EXPONENTS  0.2222899D+00 0.2941249D+01 0.6834831D+00 0.2222899D+00 0.2941249D+01
EXPONENTS  0.6834831D+00 0.2222899D+00 0.2941249D+01 0.6834831D+00 0.2222899D+00
EXPONENTS  0.7161684D+02 0.1304510D+02 0.3530512D+01 0.2941249D+01 0.6834831D+00
EXPONENTS  0.2222899D+00 0.2941249D+01 0.6834831D+00 0.2222899D+00 0.2941249D+01
EXPONENTS  0.6834831D+00 0.2222899D+00 0.2941249D+01 0.6834831D+00 0.2222899D+00
EXPONENTS  0.3425251D+01 0.6239137D+00 0.1688554D+00 0.3425251D+01 0.6239137D+00
EXPONENTS  0.1688554D+00 0.3425251D+01 0.6239137D+00 0.1688554D+00 0.3425251D+01
EXPONENTS  0.6239137D+00 0.1688554D+00 0.3425251D+01 0.6239137D+00 0.1688554D+00
EXPONENTS  0.3425251D+01 0.6239137D+00 0.1688554D+00 0.3425251D+01 0.6239137D+00
EXPONENTS  0.1688554D+00 0.3425251D+01 0.6239137D+00 0.1688554D+00 0.3425251D+01
EXPONENTS  0.6239137D+00 0.1688554D+00 0.3425251D+01 0.6239137D+00 0.1688554D+00
EXPONENTS  0.3425251D+01 0.6239137D+00 0.1688554D+00
MO    1     MO 0.0        OCC NO =    2.0000000  ORB. ENERGY =  -19.426555
  0.42264921D+01  0.40876791D+01  0.12739510D+01 -0.63868187D-02  0.85428860D-02
  0.64474435D-02 -0.38688666D-02 -0.24328471D-02 -0.38540386D-03 -0.31059054D-02
 -0.19530767D-02 -0.30940016D-03  0.50074262D-02  0.31488040D-02  0.49882345D-03
  0.35982940D-02  0.34801133D-02  0.10845993D-02 -0.50895433D-04  0.68076753D-04
  0.51378541D-04  0.40316378D-03  0.25352021D-03  0.40161860D-04 -0.77497130D-03
 -0.48732275D-03 -0.77200111D-04 -0.58347023D-03 -0.36690174D-03 -0.58123400D-04
  0.36585018D-05  0.35383437D-05  0.11027472D-05 -0.37410944D-06  0.50040160D-06
  0.37766055D-06 -0.94215189D-05 -0.59245039D-05 -0.93854096D-06  0.50995639D-04
  0.32067426D-04  0.50800191D-05  0.12226719D-04  0.76884889D-05  0.12179858D-05
 -0.17395184D-04 -0.16823864D-04 -0.52432636D-05 -0.44254539D-05  0.59194021D-05
  0.44674611D-05 -0.73057204D-05 -0.45940330D-05 -0.72777202D-06 -0.25344160D-04
 -0.15937088D-04 -0.25247024D-05 -0.69141004D-05 -0.43477719D-05 -0.68876011D-06
 -0.74063663D-04 -0.71631150D-04 -0.22324301D-04 -0.57952670D-04  0.77516379D-04
  0.58502767D-04  0.12414531D-03  0.78065900D-04  0.12366950D-04 -0.14330796D-03
 -0.90115893D-04 -0.14275871D-04 -0.26176195D-03 -0.16460294D-03 -0.26075871D-04
 -0.22362252D-05 -0.21627797D-05 -0.67404396D-06  0.23034172D-06 -0.30810066D-06
 -0.23252816D-06 -0.79911938D-05 -0.50250771D-05 -0.79605664D-06 -0.23560491D-05
 -0.14815469D-05 -0.23470192D-06  0.11602112D-04  0.72957193D-05  0.11557645D-05
 -0.46351946D-05 -0.44829584D-05 -0.13971423D-05 -0.20314808D-06  0.27172696D-06
  0.20507639D-06 -0.11263366D-04 -0.70827068D-05 -0.11220198D-05 -0.13745347D-05
 -0.86434430D-06 -0.13692666D-06 -0.42624172D-05 -0.26803223D-05 -0.42460809D-06
 -0.12880020D-05 -0.12456994D-05 -0.38823010D-06 -0.91135455D-06  0.12190103D-05
  0.92000528D-06 -0.20198523D-05 -0.12701373D-05 -0.20121109D-06 -0.15020715D-05
 -0.94454286D-06 -0.14963146D-06  0.33136689D-05  0.20837239D-05  0.33009688D-06
  0.14624001D-02  0.14143697D-02  0.44079727D-03  0.73383611D-03 -0.98156509D-03
 -0.74080181D-03 -0.22812584D-02 -0.14345165D-02 -0.22725152D-03  0.14007645D-02
  0.88083830D-03  0.13953959D-03  0.31162950D-02  0.19596099D-02  0.31043513D-03
 -0.13096112D-05 -0.12665989D-05 -0.39474356D-06 -0.66143831D-06  0.88472717D-06
  0.66771680D-06 -0.21270639D-05 -0.13375549D-05 -0.21189116D-06  0.12357765D-05
  0.77708943D-06  0.12310402D-06 -0.32523934D-07 -0.20451923D-07 -0.32399281D-08
 -0.10586242D-06 -0.10238553D-06 -0.31909097D-07 -0.18971279D-07  0.25375619D-07
  0.19151358D-07 -0.17152242D-06 -0.10785790D-06 -0.17086503D-07 -0.41632314D-07
 -0.26179516D-07 -0.41472752D-08 -0.16929869D-06 -0.10645956D-06 -0.16864983D-07
 -0.92895981D-08 -0.89844948D-08 -0.28000746D-08  0.47144200D-07 -0.63059176D-07
 -0.47591701D-07  0.13250894D-06  0.83325180D-07  0.13200109D-07  0.87574452D-07
  0.55069165D-07  0.87238810D-08 -0.13863597D-06 -0.87178020D-07 -0.13810463D-07
 -0.64761944D-05 -0.62634933D-05 -0.19520573D-05  0.34109857D-05  0.32989569D-05
  0.10281408D-05 -0.71802265D-04 -0.69444025D-04 -0.21642669D-04  0.60519947D-05
  0.58532258D-05  0.18241948D-05  0.61776904D-06  0.59747932D-06  0.18620821D-06
  0.30744087D-06  0.29734343D-06  0.92668958D-07 -0.18452944D-04 -0.17846884D-04
 -0.55620942D-05  0.77901106D-07  0.75342559D-07  0.23480985D-07 -0.79085906D-08
 -0.76488445D-08 -0.23838107D-08  0.10432454D-07  0.10089815D-07  0.31445547D-08
 -0.16139611D-02 -0.15609529D-02 -0.48648084D-03
MO    2     MO 0.0        OCC NO =    2.0000000  ORB. ENERGY =  -19.372412
 -0.39136424D-02 -0.37851045D-02 -0.11796517D-02 -0.59068886D-04  0.79009407D-04
  0.59629578D-04 -0.33219311D-03 -0.20889194D-03 -0.33091993D-04 -0.71618033D-03
 -0.45035341D-03 -0.71343547D-04  0.39679010D-03  0.24951226D-03  0.39526934D-04
  0.42267542D+01  0.40879326D+01  0.12740300D+01 -0.64174066D-02  0.85837997D-02
  0.64783217D-02  0.49348143D-02  0.31031437D-02  0.49159010D-03  0.55194927D-02
  0.34708051D-02  0.54983385D-03 -0.61808988D-02 -0.38867150D-02 -0.61572096D-03
 -0.50010706D-04 -0.48368178D-04 -0.15074248D-04 -0.19244093D-04  0.25740529D-04
  0.19426761D-04 -0.92092587D-04 -0.57910290D-04 -0.91739629D-05 -0.13740057D-03
 -0.86401166D-04 -0.13687396D-04  0.71292609D-04  0.44830706D-04  0.71019370D-05
 -0.31693166D-04 -0.30652250D-04 -0.95529675D-05 -0.70759488D-05  0.94646532D-05
  0.71431150D-05  0.53253001D-05  0.33486916D-05  0.53048901D-06 -0.70551772D-04
 -0.44364847D-04 -0.70281372D-05 -0.10947155D-05 -0.68838651D-06 -0.10905199D-06
 -0.43813379D-04 -0.42374392D-04 -0.13206247D-04 -0.19104353D-04  0.25553615D-04
  0.19285695D-04 -0.24509063D-03 -0.15411956D-03 -0.24415128D-04 -0.84134252D-04
 -0.52905876D-04 -0.83811796D-05  0.29771086D-03  0.18720858D-03  0.29656984D-04
  0.40734809D-05  0.39396934D-05  0.12278304D-05  0.40551010D-05 -0.54240251D-05
 -0.40935927D-05  0.56143959D-05  0.35304828D-05  0.55928779D-06 -0.43127173D-05
 -0.27119523D-05 -0.42961882D-06  0.23874782D-05  0.15013104D-05  0.23783279D-06
 -0.13082562D-04 -0.12652884D-04 -0.39433514D-05 -0.37967010D-05  0.50783943D-05
  0.38327399D-05 -0.29371615D-04 -0.18469660D-04 -0.29259044D-05 -0.76500985D-05
 -0.48105873D-05 -0.76207784D-06 -0.65145822D-05 -0.40965441D-05 -0.64896141D-06
 -0.91314736D-06 -0.88315638D-06 -0.27524127D-06 -0.73440793D-06  0.98232993D-06
  0.74137906D-06 -0.26487246D-05 -0.16655891D-05 -0.26385729D-06  0.74810898D-07
  0.47043100D-07  0.74524174D-08  0.35350228D-05  0.22229172D-05  0.35214743D-06
  0.16450375D-02  0.15910086D-02  0.49584789D-03  0.11905045D-02 -0.15923959D-02
 -0.12018050D-02  0.29855210D-02  0.18773757D-02  0.29740785D-03  0.33981268D-02
  0.21368333D-02  0.33851030D-03 -0.37493863D-02 -0.23577147D-02 -0.37350162D-03
 -0.14034309D-06 -0.13573372D-06 -0.42302273D-07 -0.52530952D-06  0.70264392D-06
  0.53029584D-06 -0.41368839D-07 -0.26013836D-07 -0.41210287D-08  0.36277845D-05
  0.22812482D-05  0.36138805D-06  0.24494151D-05  0.15402579D-05  0.24400273D-06
 -0.16452389D-06 -0.15912034D-06 -0.49590860D-07 -0.10137566D-06  0.13559813D-06
  0.10233794D-06 -0.47134210D-06 -0.29639256D-06 -0.46953561D-07  0.18947873D-06
  0.11914931D-06  0.18875253D-07 -0.77552891D-07 -0.48767339D-07 -0.77255658D-08
 -0.53646227D-08 -0.51884296D-08 -0.16170069D-08  0.41987461D-07 -0.56161621D-07
 -0.42386013D-07  0.40237082D-07  0.25302157D-07  0.40082868D-08 -0.48629049D-07
 -0.30579251D-07 -0.48442671D-08 -0.32251114D-06 -0.20280366D-06 -0.32127507D-07
 -0.55912751D-05 -0.54076379D-05 -0.16853245D-05  0.64241971D-05  0.62132037D-05
  0.19363842D-05  0.44635306D-05  0.43169325D-05  0.13453993D-05 -0.18523401D-05
 -0.17915027D-05 -0.55833314D-06  0.22004726D-06  0.21282013D-06  0.66326739D-07
  0.65772441D-05  0.63612241D-05  0.19825157D-05 -0.72786704D-04 -0.70396131D-04
 -0.21939399D-04  0.13277031D-06  0.12840967D-06  0.40019684D-07 -0.77243963D-08
 -0.74706998D-08 -0.23282908D-08  0.45934562D-08  0.44425909D-08  0.13845615D-08
 -0.34279580D-04 -0.33153717D-04 -0.10332566D-04
MO    3     MO 0.0        OCC NO =    2.0000000  ORB. ENERGY =  -14.547776
  0.10967445D-04  0.10607235D-04  0.33058120D-05  0.30510746D-05 -0.40810587D-05
 -0.30800359D-05 -0.47254736D-04 -0.29715046D-04 -0.47073625D-05 -0.56501739D-04
 -0.35529810D-04 -0.56285188D-05 -0.23587586D-05 -0.14832507D-05 -0.23497183D-06
 -0.10653192D-03 -0.10303303D-03 -0.32110896D-04 -0.24550005D-04  0.32837615D-04
  0.24783038D-04 -0.78561295D-04 -0.49401450D-04 -0.78260197D-05  0.14409207D-03
  0.90608961D-04  0.14353982D-04  0.79605378D-04  0.50057998D-04  0.79300279D-05
  0.34310462D+01  0.33183585D+01  0.10341874D+01 -0.62951471D-02  0.84202678D-02
  0.63549017D-02  0.37155119D-02  0.23364136D-02  0.37012716D-03  0.86629272D-03
  0.54474811D-03  0.86297253D-04  0.49324597D-02  0.31016630D-02  0.49135553D-03
 -0.24732407D-04 -0.23920108D-04 -0.74548527D-05 -0.33012897D-04  0.44157417D-04
  0.33326261D-04 -0.27985937D-03 -0.17598308D-03 -0.27878677D-04  0.20113060D-04
  0.12647632D-04  0.20035974D-05 -0.57826340D-04 -0.36362755D-04 -0.57604713D-05
  0.14636568D-02  0.14155851D-02  0.44117606D-03  0.86457546D-03 -0.11564395D-02
 -0.87278216D-03  0.37773308D-02  0.23752870D-02  0.37628536D-03 -0.13528419D-02
 -0.85070328D-03 -0.13476569D-03 -0.81737614D-03 -0.51398805D-03 -0.81424342D-04
  0.26652737D-04  0.25777367D-04  0.80336794D-05  0.75510598D-05 -0.10100153D-04
 -0.76227358D-05  0.41321146D-04  0.25983845D-04  0.41162777D-05  0.26171988D-04
  0.16457648D-04  0.26071680D-05  0.61068001D-04  0.38401197D-04  0.60833949D-05
  0.21135082D-06  0.20440931D-06  0.63705453D-07 -0.57821595D-06  0.77341055D-06
  0.58370448D-06 -0.82660982D-06 -0.51979444D-06 -0.82344172D-07 -0.20375135D-05
 -0.12812432D-05 -0.20297045D-06 -0.66171120D-05 -0.41610176D-05 -0.65917509D-06
  0.13638952D-05  0.13191001D-05  0.41110588D-06 -0.11448897D-05  0.15313824D-05
  0.11557572D-05  0.25118188D-05  0.15794991D-05  0.25021919D-06 -0.61411561D-05
 -0.38617238D-05 -0.61176193D-06  0.98879539D-06  0.62178108D-06  0.98500569D-07
 -0.16464137D-05 -0.15923397D-05 -0.49626273D-06 -0.43227402D-04  0.57820142D-04
  0.43637724D-04 -0.67097015D-04 -0.42192404D-04 -0.66839856D-05  0.17850172D-03
  0.11224667D-03  0.17781759D-04  0.80915769D-04  0.50882007D-04  0.80605648D-05
  0.11981263D-06  0.11587756D-06  0.36113974D-07  0.19190295D-06 -0.25668569D-06
 -0.19372452D-06  0.37544753D-06  0.23609148D-06  0.37400858D-07 -0.64386234D-06
 -0.40487792D-06 -0.64139464D-07  0.24029509D-07  0.15110400D-07  0.23937412D-08
  0.28330713D-06  0.27400232D-06  0.85394556D-07  0.41010300D-06 -0.54854589D-06
 -0.41399577D-06  0.93506516D-06  0.58799406D-06  0.93148138D-07 -0.38053313D-06
 -0.23928945D-06 -0.37907469D-07 -0.15249982D-05 -0.95895979D-06 -0.15191534D-06
 -0.51079907D-07 -0.49402262D-07 -0.15396527D-07 -0.72066592D-07  0.96394888D-07
  0.72750660D-07 -0.17418920D-06 -0.10953484D-06 -0.17352159D-07  0.12396450D-06
  0.77952202D-07  0.12348938D-07  0.38328581D-07  0.24102040D-07  0.38181681D-08
  0.33891237D-04  0.32778129D-04  0.10215511D-04  0.52050566D-04  0.50341042D-04
  0.15689104D-04  0.68449090D-04  0.66200980D-04  0.20631954D-04 -0.11306583D-05
 -0.10935234D-05 -0.34080349D-06 -0.21811226D-05 -0.21094868D-05 -0.65743490D-06
 -0.19702707D-02 -0.19055600D-02 -0.59387982D-03 -0.19633943D-02 -0.18989095D-02
 -0.59180716D-03 -0.85863249D-09 -0.83043196D-09 -0.25880937D-09  0.10371360D-07
  0.10030728D-07  0.31261397D-08  0.16441788D-09  0.15901782D-09  0.49558908D-10
  0.61862197D-07  0.59830423D-07  0.18646530D-07
MO    4     MO 0.0        OCC NO =    2.0000000  ORB. ENERGY =  -10.483244
  0.21514930D-02  0.20808303D-02  0.64850392D-03  0.11747959D-02 -0.15713844D-02
 -0.11859472D-02  0.29260034D-02  0.18399494D-02  0.29147891D-03 -0.25746585D-02
 -0.16190144D-02 -0.25647908D-03 -0.40529598D-02 -0.25486099D-02 -0.40374262D-03
  0.16684665D-02  0.16136682D-02  0.50290989D-03  0.16157813D-02 -0.21612381D-02
 -0.16311186D-02 -0.22775102D-02 -0.14321595D-02 -0.22687813D-03 -0.24290002D-02
 -0.15274205D-02 -0.24196907D-03  0.28333048D-02  0.17816581D-02  0.28224457D-03
  0.29364549D-04  0.28400113D-04  0.88510749D-05 -0.66626422D-04  0.89118222D-04
  0.67258851D-04  0.15532899D-03  0.97675035D-04  0.15473367D-04  0.24804635D-03
  0.15597820D-03  0.24709568D-04  0.19655344D-03  0.12359808D-03  0.19580012D-04
 -0.12942999D-02 -0.12517905D-02 -0.39012843D-03 -0.22191467D-04  0.29682880D-04
  0.22402112D-04 -0.35256015D-04 -0.22169929D-04 -0.35120892D-05  0.28739881D-03
  0.18072408D-03  0.28629731D-04  0.19595066D-04  0.12321903D-04  0.19519965D-05
 -0.16609131D-01 -0.16063629D-01 -0.50063314D-02  0.98652723D-03 -0.13195599D-02
 -0.99589151D-03  0.31098717D-03  0.19555708D-03  0.30979526D-04  0.40103682D-02
  0.25218271D-02  0.39949978D-03  0.27363102D-04  0.17206653D-04  0.27258229D-05
 -0.82996568D-03 -0.80270667D-03 -0.25016861D-03  0.15899388D-04 -0.21266716D-04
 -0.16050307D-04  0.12632601D-03  0.79437185D-04  0.12584185D-04  0.15256030D-03
  0.95934010D-04  0.15197559D-04  0.63282418D-04  0.39793683D-04  0.63039879D-05
 -0.39441905D-03 -0.38146494D-03 -0.11888596D-03 -0.50904099D-05  0.68088345D-05
  0.51387289D-05  0.11740964D-03  0.73830330D-04  0.11695965D-04  0.21224535D-04
  0.13346557D-04  0.21143189D-05  0.12110874D-03  0.76156426D-04  0.12064457D-04
  0.28833799D-04  0.27886795D-04  0.86910959D-05  0.16966404D-05 -0.22693937D-05
 -0.17127453D-05 -0.11554977D-04 -0.72660796D-05 -0.11510691D-05 -0.15465997D-04
 -0.97254342D-05 -0.15406722D-05 -0.28944639D-04 -0.18201166D-04 -0.28833705D-05
  0.26861681D+01  0.25979449D+01  0.80966594D+00 -0.55257643D-02  0.73911561D-02
  0.55782158D-02 -0.22647667D-03 -0.14241461D-03 -0.22560867D-04 -0.36756651D-03
 -0.23113569D-03 -0.36615776D-04  0.40740838D-03  0.25618932D-03  0.40584693D-04
  0.72148001D-05  0.69778405D-05  0.21746881D-05  0.36501954D-05 -0.48824312D-05
 -0.36848437D-05 -0.12860924D-05 -0.80872940D-06 -0.12811632D-06 -0.18607430D-04
 -0.11700851D-04 -0.18536114D-05 -0.24653376D-04 -0.15502704D-04 -0.24558888D-05
  0.25449148D-06  0.24613308D-06  0.76708931D-07  0.45530172D-07 -0.60900283D-07
 -0.45962352D-07  0.55595328D-06  0.34959834D-06  0.55382251D-07  0.81701751D-06
  0.51376254D-06  0.81388618D-07  0.20936843D-05  0.13165649D-05  0.20856599D-06
  0.23309072D-05  0.22543520D-05  0.70258305D-06 -0.15235825D-06  0.20379147D-06
  0.15380446D-06 -0.89543259D-06 -0.56307204D-06 -0.89200072D-07  0.13193347D-05
  0.82963306D-06  0.13142782D-06  0.12343616D-05  0.77619972D-06  0.12296308D-06
 -0.52903075D-04 -0.51165551D-04 -0.15946067D-04 -0.55103895D-04 -0.53294088D-04
 -0.16609439D-04 -0.44631877D-05 -0.43166008D-05 -0.13452959D-05 -0.68510857D-04
 -0.66260718D-04 -0.20650572D-04  0.40597843D-06  0.39264466D-06  0.12237019D-06
 -0.44123363D-04 -0.42674196D-04 -0.13299683D-04 -0.12952454D-03 -0.12527049D-03
 -0.39041341D-04  0.14593172D-05  0.14113880D-05  0.43986800D-06  0.96271104D-07
  0.93109221D-07  0.29018077D-07  0.89428331D-07  0.86491189D-07  0.26955526D-07
 -0.44139900D-03 -0.42690190D-03 -0.13304668D-03
MO    5     MO 0.0        OCC NO =    2.0000000  ORB. ENERGY =  -10.428080
 -0.71983501D-04 -0.69619308D-04 -0.21697297D-04 -0.68962476D-04  0.92242883D-04
  0.69617080D-04 -0.11716398D-03 -0.73675855D-04 -0.11671493D-04  0.14786073D-03
  0.92978798D-04  0.14729404D-04  0.92571046D-04  0.58211158D-04  0.92216254D-05
 -0.67342556D-04 -0.65130788D-04 -0.20298422D-04 -0.27412297D-04  0.36666162D-04
  0.27672499D-04 -0.96616272D-04 -0.60754905D-04 -0.96245976D-05  0.45033394D-03
  0.28318207D-03  0.44860797D-04  0.13503217D-03  0.84911850D-04  0.13451464D-04
  0.22366207D-02  0.21631622D-02  0.67416316D-03  0.10644270D-02 -0.14237571D-02
 -0.10745307D-02 -0.47907222D-02 -0.30125347D-02 -0.47723610D-03  0.17193080D-02
  0.10811470D-02  0.17127185D-03  0.11323148D-02  0.71202995D-03  0.11279751D-03
 -0.35275685D-01 -0.34117106D-01 -0.10632812D-01  0.10813695D-02 -0.14464190D-02
 -0.10916340D-02  0.29022766D-02  0.18250294D-02  0.28911532D-03  0.11544043D-02
  0.72592039D-03  0.11499799D-03  0.28781887D-02  0.18098823D-02  0.28671576D-03
  0.26840542D+01  0.25959004D+01  0.80902876D+00 -0.63258252D-02  0.84613022D-02
  0.63858710D-02  0.17203427D-03  0.10817977D-03  0.17137493D-04 -0.29674648D-03
 -0.18660215D-03 -0.29560915D-04 -0.35897812D-03 -0.22573507D-03 -0.35760228D-04
 -0.21783479D-02 -0.21068032D-02 -0.65659855D-03 -0.31607750D-05  0.42277919D-05
  0.31907776D-05 -0.89778949D-04 -0.56455413D-04 -0.89434859D-05  0.65990794D-04
  0.41496782D-04  0.65737875D-05  0.71011899D-04  0.44654188D-04  0.70739736D-05
  0.32766758D-03  0.31690582D-03  0.98765701D-04 -0.91695640D-05  0.12265033D-04
  0.92566030D-05 -0.40288023D-04 -0.25334190D-04 -0.40133613D-05  0.22031267D-04
  0.13853852D-04  0.21946829D-05 -0.33598026D-04 -0.21127340D-04 -0.33469256D-05
  0.35442604D-03  0.34278544D-03  0.10683125D-03 -0.10331174D-04  0.13818779D-04
  0.10429239D-04 -0.58951737D-04 -0.37070434D-04 -0.58725796D-05 -0.31694912D-04
 -0.19930611D-04 -0.31573437D-05  0.13668324D-04  0.85950090D-05  0.13615938D-05
  0.20120421D-01  0.19459596D-01  0.60647060D-02  0.10061618D-02 -0.13458226D-02
 -0.10157124D-02 -0.17989252D-03 -0.11312124D-03 -0.17920305D-04 -0.43912139D-02
 -0.27613132D-02 -0.43743840D-03 -0.89480923D-04 -0.56268006D-04 -0.89137975D-05
  0.26445964D-05  0.25577385D-05  0.79713537D-06 -0.65230760D-06  0.87251411D-06
  0.65849942D-06 -0.10932288D-05 -0.68745160D-06 -0.10890388D-06  0.20178214D-05
  0.12688602D-05  0.20100878D-06  0.48255934D-05  0.30344626D-05  0.48070986D-06
 -0.10254374D-06 -0.99175838D-07 -0.30908777D-07 -0.71595355D-06  0.95764571D-06
  0.72274950D-06 -0.12634061D-05 -0.79446363D-06 -0.12585639D-06  0.36089926D-05
  0.22694314D-05  0.35951606D-06  0.19996820D-05  0.12574537D-05  0.19920179D-06
  0.32834266D-06  0.31755872D-06  0.98969184D-07 -0.15202476D-06  0.20334540D-06
  0.15346781D-06 -0.98206929D-06 -0.61755152D-06 -0.97830537D-07 -0.80053617D-06
 -0.50339862D-06 -0.79746800D-07 -0.11705095D-05 -0.73604779D-06 -0.11660234D-06
  0.39605824D-04  0.38305029D-04  0.11938004D-04  0.47545885D-04  0.45984310D-04
  0.14331301D-04 -0.22642787D-02 -0.21899118D-02 -0.68249984D-03  0.39701125D-05
  0.38397200D-05  0.11966730D-05  0.19162689D-04  0.18533318D-04  0.57760257D-05
 -0.12910712D-03 -0.12486679D-03 -0.38915523D-04 -0.14606810D-03 -0.14127071D-03
 -0.44027909D-04 -0.61082776D-07 -0.59076601D-07 -0.18411596D-07 -0.26608073D-06
 -0.25734169D-06 -0.80202166D-07  0.29538744D-07  0.28568587D-07  0.89035807D-08
 -0.36165840D-04 -0.34978026D-04 -0.10901123D-04
MO    6     MO 0.0        OCC NO =    2.0000000  ORB. ENERGY =  -10.400769
 -0.38846955D-04 -0.37571084D-04 -0.11709266D-04 -0.97902207D-05  0.13095211D-04
  0.98831512D-05  0.27310760D-04  0.17173739D-04  0.27206087D-05  0.60247039D-04
  0.37884955D-04  0.60016134D-05  0.73002853D-04  0.45906153D-04  0.72723059D-05
 -0.70135547D-04 -0.67832048D-04 -0.21140287D-04 -0.22332061D-04  0.29870935D-04
  0.22544040D-04  0.77168910D-04  0.48525881D-04  0.76873149D-05  0.11052564D-03
  0.69501491D-04  0.11010204D-04  0.19181062D-05  0.12061567D-05  0.19107548D-06
  0.37941482D-05  0.36695350D-05  0.11436338D-05 -0.34142508D-04  0.45668362D-04
  0.34466594D-04  0.10834334D-03  0.68129202D-04  0.10792810D-04  0.73090725D-04
  0.45961409D-04  0.72810595D-05  0.67067709D-04  0.42173975D-04  0.66810662D-05
  0.26831852D+01  0.25950599D+01  0.80876683D+00 -0.65643059D-02  0.87802895D-02
  0.66266154D-02  0.18149781D-03  0.11413069D-03  0.18080219D-04  0.17215305D-03
  0.10825446D-03  0.17149325D-04  0.32107745D-03  0.20190212D-03  0.31984688D-04
  0.38744286D-01  0.37471787D-01  0.11678319D-01  0.91478716D-03 -0.12236017D-02
 -0.92347048D-03 -0.28153779D-02 -0.17703852D-02 -0.28045875D-03 -0.12212648D-02
 -0.76796411D-03 -0.12165842D-03 -0.29318280D-02 -0.18436121D-02 -0.29205914D-03
 -0.54880763D-01 -0.53078285D-01 -0.16542183D-01  0.12022704D-02 -0.16081337D-02
 -0.12136825D-02  0.40521633D-02  0.25481090D-02  0.40366328D-03 -0.15526826D-02
 -0.97636848D-03 -0.15467317D-03 -0.92526817D-03 -0.58183345D-03 -0.92172195D-04
 -0.78009608D-03 -0.75447496D-03 -0.23513689D-03 -0.58887647D-04  0.78766985D-04
  0.59446618D-04 -0.13892495D-03 -0.87359738D-04 -0.13839250D-04  0.11647635D-03
  0.73243452D-04  0.11602993D-04  0.30955465D-04  0.19465627D-04  0.30836823D-05
 -0.79000983D-03 -0.76406311D-03 -0.23812510D-03 -0.60882327D-04  0.81435031D-04
  0.61460233D-04 -0.13473800D-03 -0.84726868D-04 -0.13422159D-04  0.44744627D-04
  0.28136622D-04  0.44573137D-05  0.81863259D-04  0.51477814D-04  0.81549506D-05
  0.18097419D-02  0.17503035D-02  0.54549316D-03  0.14941820D-04 -0.19985891D-04
 -0.15083650D-04 -0.67795754D-04 -0.42631789D-04 -0.67535917D-05  0.42708600D-05
  0.26856313D-05  0.42544913D-06 -0.87158940D-04 -0.54807881D-04 -0.86824891D-05
 -0.59934723D-03 -0.57966255D-03 -0.18065550D-03  0.85357438D-05 -0.11417247D-04
 -0.86167666D-05  0.16580451D-04  0.10426232D-04  0.16516904D-05 -0.47078739D-04
 -0.29604375D-04 -0.46898303D-05  0.14725226D-04  0.92596173D-05  0.14668789D-05
 -0.63347404D-03 -0.61266852D-03 -0.19094202D-03  0.99936158D-05 -0.13367269D-04
 -0.10088477D-04  0.34519649D-04  0.21706882D-04  0.34387347D-05  0.16762705D-04
  0.10540838D-04  0.16698459D-05 -0.39399943D-04 -0.24775741D-04 -0.39248937D-05
 -0.22042907D-03 -0.21318940D-03 -0.66441824D-04 -0.17086207D-05  0.22854182D-05
  0.17248392D-05  0.16749328D-04  0.10532427D-04  0.16685134D-05 -0.63466543D-05
 -0.39909466D-05 -0.63223299D-06 -0.35935927D-05 -0.22597475D-05 -0.35798197D-06
 -0.22676257D-02 -0.21931489D-02 -0.68350871D-03 -0.22646614D-02 -0.21902820D-02
 -0.68261522D-03 -0.60485653D-05 -0.58499090D-05 -0.18231611D-05 -0.21569226D-04
 -0.20860816D-04 -0.65014052D-05 -0.38247058D-04 -0.36990890D-04 -0.11528445D-04
 -0.36307976D-04 -0.35115494D-04 -0.10943966D-04  0.85752449D-06  0.82936036D-06
  0.25847540D-06 -0.27007292D-05 -0.26120277D-05 -0.81405496D-06 -0.23126861D-05
 -0.22367293D-05 -0.69709083D-06 -0.26498540D-05 -0.25628234D-05 -0.79872011D-06
  0.18963739D-05  0.18340903D-05  0.57160584D-06
MO    7     MO 0.0        OCC NO =    2.0000000  ORB. ENERGY =  -10.384035
 -0.34279507D-05 -0.33153647D-05 -0.10332544D-05 -0.98969893D-05  0.13238023D-04
  0.99909332D-05 -0.11726403D-03 -0.73738767D-04 -0.11681460D-04 -0.29181865D-04
 -0.18350340D-04 -0.29070022D-05  0.31837562D-04  0.20020314D-04  0.31715540D-05
  0.31539117D-05  0.30503261D-05  0.95065340D-06  0.62257468D-05 -0.83274392D-05
 -0.62848426D-05  0.45631962D-04  0.28694602D-04  0.45457071D-05 -0.21658715D-04
 -0.13619581D-04 -0.21575705D-05  0.47885982D-04  0.30111991D-04  0.47702452D-05
  0.61072077D-04  0.59066254D-04  0.18408371D-04  0.20571492D-04 -0.27516032D-04
 -0.20766760D-04 -0.11870015D-03 -0.74641839D-04 -0.11824521D-04  0.36750620D-04
  0.23109776D-04  0.36609768D-05 -0.56727931D-05 -0.35672045D-05 -0.56510513D-06
  0.58244256D-01  0.56331308D-01  0.17556008D-01  0.89212832D-03 -0.11932937D-02
 -0.90059656D-03 -0.39102004D-02 -0.24588390D-02 -0.38952140D-03  0.14933064D-02
  0.93903113D-03  0.14875831D-03  0.85204520D-03  0.53578889D-03  0.84877961D-04
  0.32323639D-02  0.31262016D-02  0.97430049D-03  0.13290652D-05 -0.17777321D-05
 -0.13416809D-05 -0.26218255D-03 -0.16486742D-03 -0.26117770D-04  0.75259174D-04
  0.47324988D-04  0.74970732D-05 -0.28046405D-04 -0.17636332D-04 -0.27938913D-05
  0.26832555D+01  0.25951279D+01  0.80878802D+00 -0.64007642D-02  0.85615392D-02
  0.64615213D-02  0.12452357D-02  0.78303765D-03  0.12404632D-03 -0.59693137D-03
 -0.37536646D-03 -0.59464354D-04 -0.43896869D-03 -0.27603529D-03 -0.43728628D-04
 -0.43079321D-01 -0.41664443D-01 -0.12984987D-01  0.14489515D-02 -0.19380897D-02
 -0.14627052D-02  0.14539898D-02  0.91430781D-03  0.14484172D-03 -0.40847818D-02
 -0.25686204D-02 -0.40691262D-03  0.20539874D-02  0.12916024D-02  0.20461152D-03