 opt pirrolisyne pbe0
GAUSSIAN            111 MOL ORBITALS    333 PRIMITIVES       39 NUCLEI
  O    1    (CENTRE  1)   3.89430994  1.59406653 -3.41872955  CHARGE =  8.0
  O    2    (CENTRE  2)  -5.05871333 -3.67366613 -0.82754020  CHARGE =  8.0
  O    3    (CENTRE  3)  -8.22641608 -3.93368750  2.18974420  CHARGE =  8.0
  N    4    (CENTRE  4)   5.91755263  0.28330300  2.90470831  CHARGE =  7.0
  N    5    (CENTRE  5)   1.66382204  1.99876626  0.43334179  CHARGE =  7.0
  N    6    (CENTRE  6) -10.98651874  0.08594127 -0.21785804  CHARGE =  7.0
  C    7    (CENTRE  7)   7.86376256 -1.41199223 -1.06526436  CHARGE =  6.0
  C    8    (CENTRE  8)   5.33126220 -0.85492125  0.33619710  CHARGE =  6.0
  C    9    (CENTRE  9)   9.92350162 -0.45103685  0.79896086  CHARGE =  6.0
  C   10    (CENTRE 10)   8.17136579 -4.22338803 -1.75436250  CHARGE =  6.0
  C   11    (CENTRE 11)   3.62387902  1.06138315 -1.14821490  CHARGE =  6.0
  C   12    (CENTRE 12)  -2.47632863  4.29763384  0.47457173  CHARGE =  6.0
  C   13    (CENTRE 13)  -3.96885066  2.08649781 -0.69501418  CHARGE =  6.0
  C   14    (CENTRE 14)   8.36734408  0.47046550  3.04210036  CHARGE =  6.0
  C   15    (CENTRE 15)   0.32033796  4.31237526 -0.37504694  CHARGE =  6.0
  C   16    (CENTRE 16)  -6.72679310  2.01541162  0.24779385  CHARGE =  6.0
  C   17    (CENTRE 17)  -8.23479777 -0.28038730 -0.78748414  CHARGE =  6.0
  C   18    (CENTRE 18)  -7.24070399 -2.79741807  0.38856054  CHARGE =  6.0
  H   19    (CENTRE 19)   7.87193331 -0.28450815 -2.81020910  CHARGE =  1.0
  H   20    (CENTRE 20)   4.21868338 -2.58884211  0.65652487  CHARGE =  1.0
  H   21    (CENTRE 21)  11.22895370 -1.95985876  1.37022994  CHARGE =  1.0
  H   22    (CENTRE 22)  11.05905625  1.09184816  0.00155512  CHARGE =  1.0
  H   23    (CENTRE 23)   6.64747049 -4.82806137 -3.01482894  CHARGE =  1.0
  H   24    (CENTRE 24)   9.97363220 -4.53920953 -2.71842859  CHARGE =  1.0
  H   25    (CENTRE 25)   8.12438389 -5.40305768 -0.05626657  CHARGE =  1.0
  H   26    (CENTRE 26)  -2.55570184  4.17425660  2.54347029  CHARGE =  1.0
  H   27    (CENTRE 27)  -3.33964286  6.10263952 -0.07088692  CHARGE =  1.0
  H   28    (CENTRE 28)  -3.95723950  2.26697776 -2.76010430  CHARGE =  1.0
  H   29    (CENTRE 29)  -3.01774618  0.30380712 -0.23314618  CHARGE =  1.0
  H   30    (CENTRE 30)   9.26025741  1.27377246  4.73402607  CHARGE =  1.0
  H   31    (CENTRE 31)   1.25756447  6.02498087  0.36198373  CHARGE =  1.0
  H   32    (CENTRE 32)   0.44960229  4.35921826 -2.44988181  CHARGE =  1.0
  H   33    (CENTRE 33)  -6.76510259  1.97077289  2.32138164  CHARGE =  1.0
  H   34    (CENTRE 34)  -7.72359160  3.73179827 -0.35075230  CHARGE =  1.0
  H   35    (CENTRE 35)   2.18239841  1.93143355  2.32750805  CHARGE =  1.0
  H   36    (CENTRE 36)  -7.99576823 -0.37740468 -2.85274469  CHARGE =  1.0
  H   37    (CENTRE 37) -11.89454104 -1.47614813 -1.04160392  CHARGE =  1.0
  H   38    (CENTRE 38) -11.14037583 -0.32774955  1.72010453  CHARGE =  1.0
  H   39    (CENTRE 39)  -4.64553635 -5.26418306  0.15614449  CHARGE =  1.0
CENTRE ASSIGNMENTS    1  1  1  1  1  1  1  1  1  1  1  1  1  1  1  2  2  2  2  2
CENTRE ASSIGNMENTS    2  2  2  2  2  2  2  2  2  2  3  3  3  3  3  3  3  3  3  3
CENTRE ASSIGNMENTS    3  3  3  3  3  4  4  4  4  4  4  4  4  4  4  4  4  4  4  4
CENTRE ASSIGNMENTS    5  5  5  5  5  5  5  5  5  5  5  5  5  5  5  6  6  6  6  6
CENTRE ASSIGNMENTS    6  6  6  6  6  6  6  6  6  6  7  7  7  7  7  7  7  7  7  7
CENTRE ASSIGNMENTS    7  7  7  7  7  8  8  8  8  8  8  8  8  8  8  8  8  8  8  8
CENTRE ASSIGNMENTS    9  9  9  9  9  9  9  9  9  9  9  9  9  9  9 10 10 10 10 10
CENTRE ASSIGNMENTS   10 10 10 10 10 10 10 10 10 10 11 11 11 11 11 11 11 11 11 11
CENTRE ASSIGNMENTS   11 11 11 11 11 12 12 12 12 12 12 12 12 12 12 12 12 12 12 12
CENTRE ASSIGNMENTS   13 13 13 13 13 13 13 13 13 13 13 13 13 13 13 14 14 14 14 14
CENTRE ASSIGNMENTS   14 14 14 14 14 14 14 14 14 14 15 15 15 15 15 15 15 15 15 15
CENTRE ASSIGNMENTS   15 15 15 15 15 16 16 16 16 16 16 16 16 16 16 16 16 16 16 16
CENTRE ASSIGNMENTS   17 17 17 17 17 17 17 17 17 17 17 17 17 17 17 18 18 18 18 18
CENTRE ASSIGNMENTS   18 18 18 18 18 18 18 18 18 18 19 19 19 20 20 20 21 21 21 22
CENTRE ASSIGNMENTS   22 22 23 23 23 24 24 24 25 25 25 26 26 26 27 27 27 28 28 28
CENTRE ASSIGNMENTS   29 29 29 30 30 30 31 31 31 32 32 32 33 33 33 34 34 34 35 35
CENTRE ASSIGNMENTS   35 36 36 36 37 37 37 38 38 38 39 39 39
TYPE ASSIGNMENTS      1  1  1  1  1  1  2  2  2  3  3  3  4  4  4  1  1  1  1  1
TYPE ASSIGNMENTS      1  2  2  2  3  3  3  4  4  4  1  1  1  1  1  1  2  2  2  3
TYPE ASSIGNMENTS      3  3  4  4  4  1  1  1  1  1  1  2  2  2  3  3  3  4  4  4
TYPE ASSIGNMENTS      1  1  1  1  1  1  2  2  2  3  3  3  4  4  4  1  1  1  1  1
TYPE ASSIGNMENTS      1  2  2  2  3  3  3  4  4  4  1  1  1  1  1  1  2  2  2  3
TYPE ASSIGNMENTS      3  3  4  4  4  1  1  1  1  1  1  2  2  2  3  3  3  4  4  4
TYPE ASSIGNMENTS      1  1  1  1  1  1  2  2  2  3  3  3  4  4  4  1  1  1  1  1
TYPE ASSIGNMENTS      1  2  2  2  3  3  3  4  4  4  1  1  1  1  1  1  2  2  2  3
TYPE ASSIGNMENTS      3  3  4  4  4  1  1  1  1  1  1  2  2  2  3  3  3  4  4  4
TYPE ASSIGNMENTS      1  1  1  1  1  1  2  2  2  3  3  3  4  4  4  1  1  1  1  1
TYPE ASSIGNMENTS      1  2  2  2  3  3  3  4  4  4  1  1  1  1  1  1  2  2  2  3
TYPE ASSIGNMENTS      3  3  4  4  4  1  1  1  1  1  1  2  2  2  3  3  3  4  4  4
TYPE ASSIGNMENTS      1  1  1  1  1  1  2  2  2  3  3  3  4  4  4  1  1  1  1  1
TYPE ASSIGNMENTS      1  2  2  2  3  3  3  4  4  4  1  1  1  1  1  1  1  1  1  1
TYPE ASSIGNMENTS      1  1  1  1  1  1  1  1  1  1  1  1  1  1  1  1  1  1  1  1
TYPE ASSIGNMENTS      1  1  1  1  1  1  1  1  1  1  1  1  1  1  1  1  1  1  1  1
TYPE ASSIGNMENTS      1  1  1  1  1  1  1  1  1  1  1  1  1
EXPONENTS  0.1307093D+03 0.2380887D+02 0.6443608D+01 0.5033151D+01 0.1169596D+01
EXPONENTS  0.3803890D+00 0.5033151D+01 0.1169596D+01 0.3803890D+00 0.5033151D+01
EXPONENTS  0.1169596D+01 0.3803890D+00 0.5033151D+01 0.1169596D+01 0.3803890D+00
EXPONENTS  0.1307093D+03 0.2380887D+02 0.6443608D+01 0.5033151D+01 0.1169596D+01
EXPONENTS  0.3803890D+00 0.5033151D+01 0.1169596D+01 0.3803890D+00 0.5033151D+01
EXPONENTS  0.1169596D+01 0.3803890D+00 0.5033151D+01 0.1169596D+01 0.3803890D+00
EXPONENTS  0.1307093D+03 0.2380887D+02 0.6443608D+01 0.5033151D+01 0.1169596D+01
EXPONENTS  0.3803890D+00 0.5033151D+01 0.1169596D+01 0.3803890D+00 0.5033151D+01
EXPONENTS  0.1169596D+01 0.3803890D+00 0.5033151D+01 0.1169596D+01 0.3803890D+00
EXPONENTS  0.9910617D+02 0.1805231D+02 0.4885660D+01 0.3780456D+01 0.8784966D+00
EXPONENTS  0.2857144D+00 0.3780456D+01 0.8784966D+00 0.2857144D+00 0.3780456D+01
EXPONENTS  0.8784966D+00 0.2857144D+00 0.3780456D+01 0.8784966D+00 0.2857144D+00
EXPONENTS  0.9910617D+02 0.1805231D+02 0.4885660D+01 0.3780456D+01 0.8784966D+00
EXPONENTS  0.2857144D+00 0.3780456D+01 0.8784966D+00 0.2857144D+00 0.3780456D+01
EXPONENTS  0.8784966D+00 0.2857144D+00 0.3780456D+01 0.8784966D+00 0.2857144D+00
EXPONENTS  0.9910617D+02 0.1805231D+02 0.4885660D+01 0.3780456D+01 0.8784966D+00
EXPONENTS  0.2857144D+00 0.3780456D+01 0.8784966D+00 0.2857144D+00 0.3780456D+01
EXPONENTS  0.8784966D+00 0.2857144D+00 0.3780456D+01 0.8784966D+00 0.2857144D+00
EXPONENTS  0.7161684D+02 0.1304510D+02 0.3530512D+01 0.2941249D+01 0.6834831D+00
EXPONENTS  0.2222899D+00 0.2941249D+01 0.6834831D+00 0.2222899D+00 0.2941249D+01
EXPONENTS  0.6834831D+00 0.2222899D+00 0.2941249D+01 0.6834831D+00 0.2222899D+00
EXPONENTS  0.7161684D+02 0.1304510D+02 0.3530512D+01 0.2941249D+01 0.6834831D+00
EXPONENTS  0.2222899D+00 0.2941249D+01 0.6834831D+00 0.2222899D+00 0.2941249D+01
EXPONENTS  0.6834831D+00 0.2222899D+00 0.2941249D+01 0.6834831D+00 0.2222899D+00
EXPONENTS  0.7161684D+02 0.1304510D+02 0.3530512D+01 0.2941249D+01 0.6834831D+00
EXPONENTS  0.2222899D+00 0.2941249D+01 0.6834831D+00 0.2222899D+00 0.2941249D+01
EXPONENTS  0.6834831D+00 0.2222899D+00 0.2941249D+01 0.6834831D+00 0.2222899D+00
EXPONENTS  0.7161684D+02 0.1304510D+02 0.3530512D+01 0.2941249D+01 0.6834831D+00
EXPONENTS  0.2222899D+00 0.2941249D+01 0.6834831D+00 0.2222899D+00 0.2941249D+01
EXPONENTS  0.6834831D+00 0.2222899D+00 0.2941249D+01 0.6834831D+00 0.2222899D+00
EXPONENTS  0.7161684D+02 0.1304510D+02 0.3530512D+01 0.2941249D+01 0.6834831D+00
EXPONENTS  0.2222899D+00 0.2941249D+01 0.6834831D+00 0.2222899D+00 0.2941249D+01
EXPONENTS  0.6834831D+00 0.2222899D+00 0.2941249D+01 0.6834831D+00 0.2222899D+00
EXPONENTS  0.7161684D+02 0.1304510D+02 0.3530512D+01 0.2941249D+01 0.6834831D+00
EXPONENTS  0.2222899D+00 0.2941249D+01 0.6834831D+00 0.2222899D+00 0.2941249D+01
EXPONENTS  0.6834831D+00 0.2222899D+00 0.2941249D+01 0.6834831D+00 0.2222899D+00
EXPONENTS  0.7161684D+02 0.1304510D+02 0.3530512D+01 0.2941249D+01 0.6834831D+00
EXPONENTS  0.2222899D+00 0.2941249D+01 0.6834831D+00 0.2222899D+00 0.2941249D+01
EXPONENTS  0.6834831D+00 0.2222899D+00 0.2941249D+01 0.6834831D+00 0.2222899D+00
EXPONENTS  0.7161684D+02 0.1304510D+02 0.3530512D+01 0.2941249D+01 0.6834831D+00
EXPONENTS  0.2222899D+00 0.2941249D+01 0.6834831D+00 0.2222899D+00 0.2941249D+01
EXPONENTS  0.6834831D+00 0.2222899D+00 0.2941249D+01 0.6834831D+00 0.2222899D+00
EXPONENTS  0.7161684D+02 0.1304510D+02 0.3530512D+01 0.2941249D+01 0.6834831D+00
EXPONENTS  0.2222899D+00 0.2941249D+01 0.6834831D+00 0.2222899D+00 0.2941249D+01
EXPONENTS  0.6834831D+00 0.2222899D+00 0.2941249D+01 0.6834831D+00 0.2222899D+00
EXPONENTS  0.7161684D+02 0.1304510D+02 0.3530512D+01 0.2941249D+01 0.6834831D+00
EXPONENTS  0.2222899D+00 0.2941249D+01 0.6834831D+00 0.2222899D+00 0.2941249D+01
EXPONENTS  0.6834831D+00 0.2222899D+00 0.2941249D+01 0.6834831D+00 0.2222899D+00
EXPONENTS  0.7161684D+02 0.1304510D+02 0.3530512D+01 0.2941249D+01 0.6834831D+00
EXPONENTS  0.2222899D+00 0.2941249D+01 0.6834831D+00 0.2222899D+00 0.2941249D+01
EXPONENTS  0.6834831D+00 0.2222899D+00 0.2941249D+01 0.6834831D+00 0.2222899D+00
EXPONENTS  0.7161684D+02 0.1304510D+02 0.3530512D+01 0.2941249D+01 0.6834831D+00
EXPONENTS  0.2222899D+00 0.2941249D+01 0.6834831D+00 0.2222899D+00 0.2941249D+01
EXPONENTS  0.6834831D+00 0.2222899D+00 0.2941249D+01 0.6834831D+00 0.2222899D+00
EXPONENTS  0.3425251D+01 0.6239137D+00 0.1688554D+00 0.3425251D+01 0.6239137D+00
EXPONENTS  0.1688554D+00 0.3425251D+01 0.6239137D+00 0.1688554D+00 0.3425251D+01
EXPONENTS  0.6239137D+00 0.1688554D+00 0.3425251D+01 0.6239137D+00 0.1688554D+00
EXPONENTS  0.3425251D+01 0.6239137D+00 0.1688554D+00 0.3425251D+01 0.6239137D+00
EXPONENTS  0.1688554D+00 0.3425251D+01 0.6239137D+00 0.1688554D+00 0.3425251D+01
EXPONENTS  0.6239137D+00 0.1688554D+00 0.3425251D+01 0.6239137D+00 0.1688554D+00
EXPONENTS  0.3425251D+01 0.6239137D+00 0.1688554D+00 0.3425251D+01 0.6239137D+00
EXPONENTS  0.1688554D+00 0.3425251D+01 0.6239137D+00 0.1688554D+00 0.3425251D+01
EXPONENTS  0.6239137D+00 0.1688554D+00 0.3425251D+01 0.6239137D+00 0.1688554D+00
EXPONENTS  0.3425251D+01 0.6239137D+00 0.1688554D+00 0.3425251D+01 0.6239137D+00
EXPONENTS  0.1688554D+00 0.3425251D+01 0.6239137D+00 0.1688554D+00 0.3425251D+01
EXPONENTS  0.6239137D+00 0.1688554D+00 0.3425251D+01 0.6239137D+00 0.1688554D+00
EXPONENTS  0.3425251D+01 0.6239137D+00 0.1688554D+00
MO    1     MO 0.0        OCC NO =    2.0000007  ORB. ENERGY =    0.000000
 -0.88194674D-01 -0.85298049D-01 -0.26583676D-01 -0.48812298D-04  0.65290392D-04
  0.49275633D-04 -0.18963595D-03 -0.11924818D-03 -0.18890915D-04  0.33254017D-03
  0.20911018D-03  0.33126566D-04 -0.68901636D-03 -0.43327198D-03 -0.68637561D-04
 -0.19751277D-04 -0.19102575D-04 -0.59534383D-05 -0.88787520D-07  0.11876048D-06
  0.89630306D-07  0.76231685D-06  0.47936529D-06  0.75939516D-07  0.85369321D-06
  0.53682520D-06  0.85042131D-07  0.13142342D-06  0.82642571D-07  0.13091972D-07
 -0.41167400D-04 -0.39815317D-04 -0.12408695D-04 -0.25708848D-07  0.34387661D-07
  0.25952881D-07 -0.23699062D-06 -0.14902606D-06 -0.23608232D-07 -0.64566186D-07
 -0.40600951D-07 -0.64318727D-08  0.18095593D-06  0.11378995D-06  0.18026240D-07
  0.32617268D+01  0.31546001D+01  0.98315108D+00 -0.27204623D-02  0.36388381D-02
  0.27462854D-02  0.15577754D-01  0.97957100D-02  0.15518050D-02 -0.39601946D-02
 -0.24902766D-02 -0.39450166D-03 -0.10530219D-01 -0.66216845D-02 -0.10489861D-02
  0.13431996D+00  0.12990842D+00  0.40486779D-01 -0.36258360D-03  0.48498486D-03
  0.36602531D-03  0.11281316D-03  0.70939945D-04  0.11238079D-04  0.11845471D-03
  0.74487499D-04  0.11800071D-04  0.15505800D-03  0.97504629D-04  0.15446371D-04
 -0.18187402D-03 -0.17590063D-03 -0.54820544D-04  0.11050638D-06 -0.14781121D-06
 -0.11155532D-06 -0.93455155D-06 -0.58767109D-06 -0.93096974D-07  0.14052122D-05
  0.88363511D-06  0.13998265D-06 -0.42688286D-06 -0.26843540D-06 -0.42524677D-07
 -0.13515376D-01 -0.13071483D-01 -0.40738104D-02  0.41662399D-04 -0.55726825D-04
 -0.42057866D-04 -0.15564552D-04 -0.97874079D-05 -0.15504898D-05  0.18210014D-04
  0.11450945D-04  0.18140221D-05 -0.70223439D-04 -0.44158383D-04 -0.69954297D-05
 -0.86383934D-01 -0.83546780D-01 -0.26037882D-01  0.10064416D-02 -0.13461969D-02
 -0.10159949D-02  0.12627458D-04  0.79404842D-05  0.12579061D-05 -0.16699151D-02
 -0.10500874D-02 -0.16635149D-03 -0.37184706D-02 -0.23382741D-02 -0.37042190D-03
  0.81450251D-02  0.78775137D-02  0.24550769D-02  0.37779085D-03 -0.50532579D-03
 -0.38137691D-03  0.99832075D-03  0.62777088D-03  0.99449454D-04 -0.69493824D-03
 -0.43699581D-03 -0.69227478D-04 -0.16770182D-02 -0.10545541D-02 -0.16705908D-03
 -0.43052992D-02 -0.41638980D-02 -0.12977051D-02 -0.78357563D-05  0.10480957D-04
  0.79101346D-05 -0.62318616D-04 -0.39187618D-04 -0.62079771D-05  0.14339752D-03
  0.90172208D-04  0.14284793D-04  0.72009144D-04  0.45281282D-04  0.71733158D-05
 -0.26269781D-01 -0.25406989D-01 -0.79182486D-02  0.15248226D-05 -0.20395734D-05
 -0.15392964D-05  0.27877710D-03  0.17530252D-03  0.27770865D-04 -0.85065864D-04
 -0.53491698D-04 -0.84739837D-05  0.32310001D-04  0.20317396D-04  0.32186168D-05
  0.23330554D-03  0.22564296D-03  0.70323056D-04 -0.29070475D-06  0.38884108D-06
  0.29346417D-06  0.10204357D-04  0.64167735D-05  0.10165247D-05 -0.88385245D-05
 -0.55579014D-05 -0.88046496D-06 -0.18477096D-05 -0.11618894D-05 -0.18406280D-06
  0.27205240D-03  0.26311723D-03  0.82002149D-04 -0.17774529D-05  0.23774869D-05
  0.17943248D-05 -0.18734073D-05 -0.11780488D-05 -0.18662272D-06  0.19178871D-05
  0.12060189D-05  0.19105365D-06  0.15554569D-05  0.97811304D-06  0.15494954D-06
  0.84701969D+00  0.81920057D+00  0.25530904D+00 -0.94067254D-03  0.12582255D-02
  0.94960156D-03  0.23665928D-02  0.14881770D-02  0.23575225D-03 -0.53107113D-03
 -0.33395178D-03 -0.52903572D-04 -0.14928168D-02 -0.93872326D-03 -0.14870954D-03
  0.24189298D-02  0.23394836D-02  0.72911484D-03  0.29251290D-04 -0.39125963D-04
 -0.29528948D-04 -0.62064926D-04 -0.39028091D-04 -0.61827053D-05  0.17093237D-03
  0.10748686D-03  0.17027725D-04 -0.20304236D-04 -0.12767848D-04 -0.20226417D-05
 -0.37093430D-04 -0.35875151D-04 -0.11180718D-04  0.51327702D-06 -0.68654949D-06
 -0.51814914D-06 -0.17286420D-05 -0.10870165D-05 -0.17220168D-06 -0.38794007D-06
 -0.24394712D-06 -0.38645323D-07  0.88926584D-06  0.55919423D-06  0.88585760D-07
  0.22734163D-04  0.21987493D-04  0.68525410D-05 -0.18151902D-06  0.24279636D-06
  0.18324203D-06  0.44071787D-07  0.27713522D-07  0.43902875D-08  0.45919429D-06
  0.28875369D-06  0.45743436D-07  0.55283003D-07  0.34763436D-07  0.55071123D-08
 -0.32057116D-04 -0.31004247D-04 -0.96626696D-05  0.28716965D-07 -0.38411260D-07
 -0.28989551D-07  0.24208186D-06  0.15222757D-06  0.24115405D-07  0.21672312D-06
  0.13628132D-06  0.21589250D-07 -0.22238065D-07 -0.13983892D-07 -0.22152835D-08
  0.71058099D-04  0.68724300D-04  0.21418362D-04  0.16365080D-03  0.15827593D-03
  0.49327693D-04  0.11798683D-03  0.11411173D-03  0.35563641D-04  0.10785934D-03
  0.10431686D-03  0.32511007D-04  0.38869799D-05  0.37593178D-05  0.11716151D-05
 -0.52469050D-04 -0.50745781D-04 -0.15815243D-04  0.42498620D-04  0.41102815D-04
  0.12809952D-04  0.83137264D-05  0.80406742D-05  0.25059269D-05 -0.53899973D-05
 -0.52129707D-05 -0.16246553D-05  0.16611541D-06  0.16065959D-06  0.50070577D-07
 -0.42353047D-05 -0.40962023D-05 -0.12766074D-05 -0.87920551D-03 -0.85032930D-03
 -0.26501050D-03 -0.17175448D-05 -0.16611345D-05 -0.51770307D-06  0.24156652D-04
  0.23363263D-04  0.72813085D-05 -0.16549712D-06 -0.16006161D-06 -0.49884213D-07
  0.34202455D-07  0.33079125D-07  0.10309318D-07 -0.81418200D-03 -0.78744138D-03
 -0.24541108D-03  0.17589223D-07  0.17011531D-07  0.53017512D-08  0.15199072D-06
  0.14699881D-06  0.45813108D-07  0.99986508D-07  0.96702598D-07  0.30137976D-07
  0.57735977D-07  0.55839723D-07  0.17402803D-07
MO    2     MO 0.0        OCC NO =    2.0000005  ORB. ENERGY =    0.000000
  0.26010748D-02  0.25156463D-02  0.78401706D-03  0.30524632D-06 -0.40829162D-06
 -0.30814377D-06 -0.26878646D-05 -0.16902014D-05 -0.26775629D-06 -0.64307584D-08
 -0.40438335D-08 -0.64061116D-09  0.14707715D-04  0.92486058D-05  0.14651346D-05
  0.14011861D+00  0.13551662D+00  0.42234612D-01  0.27346217D-03 -0.36577774D-03
 -0.27605792D-03  0.72518266D-03  0.45601432D-03  0.72240329D-04 -0.66048365D-03
 -0.41532985D-03 -0.65795226D-04  0.64382627D-03  0.40485524D-03  0.64135872D-04
  0.20557002D+01  0.19881837D+01  0.61963002D+00  0.17823638D-03 -0.23840556D-03
 -0.17992823D-03  0.48242316D-02  0.30336063D-02  0.48057420D-03  0.59296706D-02
  0.37287360D-02  0.59069443D-03 -0.85084489D-02 -0.53503410D-02 -0.84758391D-03
  0.27910753D-03  0.26994066D-03  0.84128712D-04 -0.25034584D-06  0.33485779D-06
  0.25272217D-06  0.14111360D-05  0.88736018D-06  0.14057276D-06 -0.74525811D-06
 -0.46863830D-06 -0.74240180D-07 -0.15262817D-05 -0.95976689D-06 -0.15204320D-06
 -0.21528220D-03 -0.20821157D-03 -0.64890453D-04 -0.55644265D-06  0.74428700D-06
  0.56172450D-06 -0.10193759D-04 -0.64101090D-05 -0.10154690D-05 -0.37060207D-05
 -0.23304453D-05 -0.36918168D-06  0.16111617D-07  0.10131417D-07  0.16049867D-08
  0.27782029D+01  0.26869569D+01  0.83740710D+00 -0.22398572D-02  0.29959899D-02
  0.22611183D-02  0.67108467D-02  0.42199605D-02  0.66851264D-03 -0.17965501D-01
 -0.11297189D-01 -0.17896646D-02  0.58425688D-02  0.36739641D-02  0.58201763D-03
  0.55669213D-04  0.53840839D-04  0.16779838D-04 -0.10212742D-06  0.13660367D-06
  0.10309683D-06  0.49594185D-06  0.31186154D-06  0.49404108D-07 -0.40839170D-07
 -0.25680766D-07 -0.40682648D-08 -0.19749700D-06 -0.12419142D-06 -0.19674007D-07
  0.72152823D-04  0.69783069D-04  0.21748335D-04  0.25754572D-06 -0.34448820D-06
 -0.25999038D-06  0.82452860D-06  0.51848571D-06  0.82136847D-07 -0.49751562D-06
 -0.31285117D-06 -0.49560882D-07 -0.30857330D-06 -0.19403917D-06 -0.30739064D-07
  0.11282114D-04  0.10911569D-04  0.34006596D-05 -0.18131872D-07  0.24252844D-07
  0.18303983D-07 -0.16517540D-07 -0.10386673D-07 -0.16454234D-08 -0.82643259D-07
 -0.51968299D-07 -0.82326517D-08 -0.22269736D-06 -0.14003808D-06 -0.22184384D-07
  0.13248318D-04  0.12813196D-04  0.39933135D-05 -0.37854733D-07  0.50633764D-07
  0.38214057D-07 -0.71008042D-07 -0.44651762D-07 -0.70735893D-08  0.61256964D-07
  0.38520023D-07  0.61022188D-08  0.60076314D-07  0.37777598D-07  0.59846063D-08
  0.10499405D-02  0.10154567D-02  0.31647351D-03 -0.16023362D-05  0.21432541D-05
  0.16175458D-05 -0.12211370D-05 -0.76788370D-06 -0.12164568D-06 -0.23385945D-05
 -0.14705710D-05 -0.23296315D-06 -0.17766908D-07 -0.11172309D-07 -0.17698814D-08
  0.95126917D-03  0.92002613D-03  0.28673196D-03 -0.52811194D-05  0.70639238D-05
  0.53312487D-05 -0.81079601D-05 -0.50985029D-05 -0.80768851D-06 -0.18277864D-04
 -0.11493612D-04 -0.18207812D-05 -0.26701100D-05 -0.16790368D-05 -0.26598764D-06
  0.57284891D-02  0.55403453D-02  0.17266836D-02 -0.30668171D-05  0.41021157D-05
  0.30959279D-05  0.14106904D-03  0.88708000D-04  0.14052838D-04  0.45647138D-04
  0.28704145D-04  0.45472189D-05  0.12329665D-04  0.77532240D-05  0.12282409D-05
 -0.43257226D-04 -0.41836506D-04 -0.13038612D-04  0.19413326D-06 -0.25966892D-06
 -0.19597601D-06  0.57490253D-06  0.36151414D-06  0.57269913D-07  0.43424751D-07
  0.27306649D-07  0.43258320D-08  0.39042901D-07  0.24551224D-07  0.38893264D-08
 -0.14022880D-02 -0.13562319D-02 -0.42267824D-03  0.68881666D-05 -0.92134793D-05
 -0.69535503D-05  0.30331022D-04  0.19072961D-04  0.30214774D-05  0.30636766D-05
  0.19265221D-05  0.30519346D-06 -0.83634618D-05 -0.52591692D-05 -0.83314076D-06
  0.17059017D-01  0.16498739D-01  0.51419361D-02 -0.15336546D-03  0.20513869D-03
  0.15482123D-03 -0.27521864D-03 -0.17306487D-03 -0.27416383D-04 -0.30654777D-03
 -0.19276546D-03 -0.30537288D-04 -0.36723665D-03 -0.23092826D-03 -0.36582916D-04
 -0.18526170D-01 -0.17917705D-01 -0.55841661D-02  0.10809395D-02 -0.14458439D-02
 -0.10912000D-02  0.18995862D-02  0.11945108D-02  0.18923058D-03  0.84445050D-04
  0.53101313D-04  0.84121402D-05 -0.69938023D-03 -0.43978906D-03 -0.69669976D-04
  0.91054418D+00  0.88063869D+00  0.27445661D+00 -0.15094100D-02  0.20189578D-02
  0.15237376D-02  0.31442397D-03  0.19771823D-03  0.31321889D-04 -0.32839338D-03
 -0.20650257D-03 -0.32713476D-04 -0.43644429D-03 -0.27444788D-03 -0.43477155D-04
 -0.39352734D-06 -0.38060251D-06 -0.11861718D-06 -0.24945453D-06 -0.24126156D-06
 -0.75190690D-07 -0.18500081D-07 -0.17892473D-07 -0.55763024D-08 -0.12481144D-07
 -0.12071219D-07 -0.37620718D-08  0.34720134D-08  0.33579802D-08  0.10465357D-08
 -0.79769682D-07 -0.77149763D-07 -0.24044211D-07  0.40446146D-09  0.39117752D-09
  0.12191295D-09 -0.17551301D-05 -0.16974854D-05 -0.52903206D-06  0.68500187D-05
  0.66250399D-05  0.20647356D-05 -0.27003119D-04 -0.26116241D-04 -0.81392917D-05
 -0.61765276D-04 -0.59736686D-04 -0.18617316D-04  0.14899583D-06  0.14410228D-06
  0.44910385D-07  0.72898571D-05  0.70504325D-05  0.21973118D-05 -0.43654307D-06
 -0.42220546D-06 -0.13158300D-06 -0.39356419D-04 -0.38063815D-04 -0.11862828D-04
 -0.20905955D-03 -0.20219329D-03 -0.63014817D-04  0.95578627D-06  0.92439487D-06
  0.28809350D-06  0.20862610D-03  0.20177408D-03  0.62884168D-04 -0.13830529D-02
 -0.13376285D-02 -0.41688039D-03 -0.14465154D-02 -0.13990067D-02 -0.43600929D-03
 -0.45974732D-03 -0.44464760D-03 -0.13857723D-03
MO    3     MO 0.0        OCC NO =    2.0000005  ORB. ENERGY =    0.000000
  0.38318186D+01  0.37059681D+01  0.11549884D+01 -0.24304121D-03  0.32508725D-03
  0.24534820D-03 -0.24993497D-02 -0.15716581D-02 -0.24897705D-03 -0.44213851D-02
 -0.27802856D-02 -0.44044395D-03  0.19672570D-01  0.12370640D-01  0.19597172D-02
 -0.93015415D-03 -0.89960460D-03 -0.28036746D-03 -0.91812407D-06  0.12280651D-05
  0.92683906D-06 -0.61015866D-05 -0.38368414D-05 -0.60782014D-06  0.62998354D-05
  0.39615056D-05  0.62756904D-06 -0.13743900D-05 -0.86425334D-06 -0.13691225D-06
 -0.12896849D-01 -0.12473271D-01 -0.38873738D-02  0.90296673D-06 -0.12077909D-05
 -0.91153784D-06 -0.29476351D-04 -0.18535520D-04 -0.29363379D-05 -0.33324401D-04
 -0.20955278D-04 -0.33196681D-05  0.52257367D-04  0.32860835D-04  0.52057083D-05
  0.97037267D-01  0.93850220D-01  0.29249014D-01 -0.10259191D-03  0.13722497D-03
  0.10356573D-03  0.49491530D-03  0.31121602D-03  0.49301847D-04 -0.45594671D-03
 -0.28671153D-03 -0.45419923D-04 -0.41863358D-03 -0.26324803D-03 -0.41702911D-04
 -0.48178555D-01 -0.46596201D-01 -0.14522001D-01  0.48321992D-03 -0.64634568D-03
 -0.48780673D-03 -0.21983946D-02 -0.13824095D-02 -0.21899690D-03  0.64517025D-03
  0.40570036D-03  0.64269754D-04  0.95944598D-03  0.60332538D-03  0.95576877D-04
  0.54329928D-02  0.52545541D-02  0.16376150D-02 -0.44834436D-05  0.59969680D-05
  0.45260012D-05  0.10344030D-04  0.65046038D-05  0.10304385D-05 -0.32136654D-04
 -0.20208390D-04 -0.32013485D-05  0.93119149D-05  0.58555820D-05  0.92762256D-06
  0.49835090D-01  0.48198330D-01  0.15021314D-01 -0.16950207D-03  0.22672272D-03
  0.17111102D-03  0.19628842D-03  0.12343143D-03  0.19553612D-04  0.15944182D-03
  0.10026129D-03  0.15883074D-04 -0.25145652D-03 -0.15812261D-03 -0.25049277D-04
  0.28883918D-01  0.27935268D-01  0.87062030D-02  0.47046637D-03 -0.62928678D-03
 -0.47493212D-03  0.15828932D-02  0.99536574D-03  0.15768266D-03 -0.18282751D-02
 -0.11496685D-02 -0.18212680D-03  0.81594450D-03  0.51308780D-03  0.81281727D-04
 -0.33333056D-02 -0.32238281D-02 -0.10047264D-02  0.33084735D-04 -0.44253506D-04
 -0.33398781D-04  0.79649036D-04  0.50085451D-04  0.79343770D-05 -0.24616996D-04
 -0.15479828D-04 -0.24522648D-05  0.46073776D-04  0.28972427D-04  0.45897192D-05
 -0.33723605D-02 -0.32616003D-02 -0.10164984D-02  0.36370740D-04 -0.48648804D-04
 -0.36715978D-04 -0.91744187D-05 -0.57691207D-05 -0.91392564D-06 -0.13657329D-03
 -0.85880947D-04 -0.13604985D-04 -0.66662718D-04 -0.41919306D-04 -0.66407223D-05
  0.11559255D+01  0.11179608D+01  0.34841955D+00 -0.18535129D-02  0.24792233D-02
  0.18711068D-02 -0.11557289D-02 -0.72675337D-03 -0.11512994D-03 -0.41375694D-03
 -0.26018146D-03 -0.41217115D-04  0.30508805D-02  0.19184755D-02  0.30391876D-03
 -0.53744525D-02 -0.51979365D-02 -0.16199698D-02  0.44379670D-04 -0.59361394D-04
 -0.44800929D-04 -0.13981825D-03 -0.87921467D-04 -0.13928238D-04 -0.18412971D-04
 -0.11578570D-04 -0.18342401D-05  0.31995972D-04  0.20119925D-04  0.31873342D-05
 -0.40724517D-02 -0.39386980D-02 -0.12275201D-02  0.82632480D-05 -0.11052762D-04
 -0.83416842D-05  0.18466892D-04  0.11612477D-04  0.18396115D-05  0.17526328D-04
  0.11021025D-04  0.17459155D-05  0.47694594D-05  0.29991641D-05  0.47511798D-06
 -0.23811834D-01 -0.23029770D-01 -0.71773733D-02  0.97244905D-04 -0.13007292D-03
 -0.98167971D-04  0.26697080D-03  0.16787840D-03  0.26594760D-04  0.20010938D-03
  0.12583415D-03  0.19934244D-04 -0.46513857D-04 -0.29249161D-04 -0.46335586D-05
  0.45354704D-01  0.43865096D-01  0.13670834D-01 -0.13292495D-03  0.17779786D-03
  0.13418670D-03 -0.21536898D-03 -0.13542979D-03 -0.21454354D-04  0.22107373D-03
  0.13901710D-03  0.22022643D-04 -0.22737634D-03 -0.14298034D-03 -0.22650489D-04
 -0.24541874D-03 -0.23735832D-03 -0.73974221D-04  0.26108225D-06 -0.34921860D-06
 -0.26356049D-06 -0.73409766D-06 -0.46162031D-06 -0.73128412D-07 -0.26614182D-08
 -0.16735712D-08 -0.26512180D-09 -0.18644528D-05 -0.11724179D-05 -0.18573070D-06
  0.14785092D-03  0.14299497D-03  0.44565286D-04 -0.16677862D-05  0.22307987D-05
  0.16836171D-05  0.11653368D-04  0.73279507D-05  0.11608705D-05 -0.82540980D-05
 -0.51903983D-05 -0.82224629D-06  0.49187076D-05  0.30930153D-05  0.48998559D-06
 -0.40151874D-02 -0.38833144D-02 -0.12102595D-02  0.62098409D-05 -0.83061639D-05
 -0.62687858D-05 -0.58459076D-05 -0.36760636D-05 -0.58235024D-06 -0.32301903D-05
 -0.20312303D-05 -0.32178101D-06  0.75872673D-05  0.47710773D-05  0.75581880D-06
 -0.27335238D-03 -0.26437452D-03 -0.82393992D-04  0.35276097D-04  0.34117506D-04
  0.10632936D-04  0.35677699D-04  0.34505917D-04  0.10753987D-04 -0.12546837D-04
 -0.12134754D-04 -0.37818729D-05  0.48840526D-05  0.47236431D-05  0.14721532D-05
  0.78896884D-05  0.76305631D-05  0.23781132D-05  0.88538074D-05  0.85630170D-05
  0.26687184D-05  0.19951045D-04  0.19295782D-04  0.60136524D-05  0.47528665D-05
  0.45967656D-05  0.14326111D-05  0.93388018D-05  0.90320825D-05  0.28149056D-05
  0.64775851D-05  0.62648383D-05  0.19524765D-05  0.68819703D-04  0.66559420D-04
  0.20743664D-04 -0.31724775D-04 -0.30682821D-04 -0.95624953D-05 -0.24643843D-03
 -0.23834453D-03 -0.74281578D-04 -0.42024893D-07 -0.40644647D-07 -0.12667161D-07
 -0.55763127D-06 -0.53931669D-06 -0.16808146D-06  0.85817225D-04  0.82998684D-04
  0.25867064D-04 -0.26255313D-06 -0.25392995D-06 -0.79138875D-07 -0.20518781D-05
 -0.19844872D-05 -0.61847798D-06 -0.22474916D-05 -0.21736760D-05 -0.67743987D-06
  0.15422293D-05  0.14915770D-05  0.46485941D-06
MO    4     MO 0.0        OCC NO =    2.0000005  ORB. ENERGY =    0.000000
  0.14114864D-01  0.13651282D-01  0.42545083D-02 -0.10188145D-05  0.13627467D-05
  0.10284852D-05 -0.88840518D-05 -0.55865301D-05 -0.88500023D-06 -0.16249777D-04
 -0.10218296D-04 -0.16187497D-05  0.72175174D-04  0.45385687D-04  0.71898553D-05
  0.12880781D+00  0.12457731D+00  0.38825306D-01  0.17517398D-03 -0.23430935D-03
 -0.17683676D-03  0.13997477D-02  0.88019890D-03  0.13943829D-03 -0.16116117D-02
 -0.10134247D-02 -0.16054350D-03 -0.48673070D-03 -0.30606932D-03 -0.48486523D-04
  0.31156009D+01  0.30132735D+01  0.93910574D+00 -0.24648738D-03  0.32969678D-03
  0.24882708D-03  0.69339071D-02  0.43602269D-02  0.69073319D-03  0.78720572D-02
  0.49501608D-02  0.78418864D-03 -0.12864201D-01 -0.80893551D-02 -0.12814898D-02
  0.29331605D-03  0.28368251D-03  0.88411449D-04 -0.30513733D-06  0.40814583D-06
  0.30803374D-06  0.15993800D-05  0.10057330D-05  0.15932501D-06 -0.16674449D-05
 -0.10485341D-05 -0.16610542D-06 -0.12613501D-05 -0.79317078D-06 -0.12565158D-06
  0.69831547D-04  0.67538032D-04  0.21048655D-04  0.98443835D-06 -0.13167658D-05
 -0.99378281D-06 -0.10927859D-04 -0.68717309D-05 -0.10885976D-05  0.21040522D-05
  0.13230845D-05  0.20959881D-06  0.21160439D-05  0.13306252D-05  0.21079338D-06
 -0.20171622D+01 -0.19509115D+01 -0.60801390D+00  0.18091015D-02 -0.24198194D-02
 -0.18262738D-02 -0.46709666D-02 -0.29372291D-02 -0.46530644D-03  0.11639947D-01
  0.73195108D-02  0.11595335D-02 -0.35228316D-02 -0.22152510D-02 -0.35093298D-03
  0.18377202D-03  0.17773630D-03  0.55392640D-04 -0.61878680D-06  0.82767734D-06
  0.62466044D-06  0.73952490D-06  0.46503310D-06  0.73669056D-07  0.59727066D-06
  0.37557982D-06  0.59498154D-07 -0.94013521D-06 -0.59118225D-06 -0.93653201D-07
  0.13978717D-03  0.13519607D-03  0.42134710D-04  0.16180896D-05 -0.21643256D-05
 -0.16334488D-05  0.58689950D-05  0.36905815D-05  0.58465012D-06 -0.65180684D-05
 -0.40987363D-05 -0.64930869D-06  0.30500094D-05  0.19179277D-05  0.30383198D-06
 -0.10883941D-04 -0.10526474D-04 -0.32806422D-05  0.99414984D-07 -0.13297557D-06
 -0.10035865D-06  0.25032136D-06  0.15740879D-06  0.24936197D-07 -0.81045389D-07
 -0.50963515D-07 -0.80734771D-08  0.29711348D-06  0.18683293D-06  0.29597475D-07
 -0.13961679D-04 -0.13503128D-04 -0.42083351D-05  0.14120344D-06 -0.18887101D-06