 opt proline m062x
GAUSSIAN             31 MOL ORBITALS    147 PRIMITIVES       17 NUCLEI
  O    1    (CENTRE  1)  -4.05463595  1.91893966 -0.40214305  CHARGE =  8.0
  O    2    (CENTRE  2)  -3.21646788 -2.38680171 -0.66190664  CHARGE =  8.0
  N    3    (CENTRE  3)   1.55746949 -1.97526633  1.45521609  CHARGE =  7.0
  C    4    (CENTRE  4)  -0.09677764  0.34803891  1.51647018  CHARGE =  6.0
  C    5    (CENTRE  5)   1.46674408  2.52199076  0.27776292  CHARGE =  6.0
  C    6    (CENTRE  6)   3.84295600  1.19491147 -0.83730826  CHARGE =  6.0
  C    7    (CENTRE  7)   3.09671654 -1.62999856 -0.92548170  CHARGE =  6.0
  C    8    (CENTRE  8)  -2.59107221 -0.24125834  0.04127882  CHARGE =  6.0
  H    9    (CENTRE  9)  -0.61455421  0.79977394  3.48717860  CHARGE =  1.0
  H   10    (CENTRE 10)   1.98607438  3.95038783  1.68484754  CHARGE =  1.0
  H   11    (CENTRE 11)   0.34742334  3.45297301 -1.19893678  CHARGE =  1.0
  H   12    (CENTRE 12)   4.34741506  1.93039870 -2.70791651  CHARGE =  1.0
  H   13    (CENTRE 13)   5.46155793  1.44854293  0.43143328  CHARGE =  1.0
  H   14    (CENTRE 14)   1.98850944 -2.02523516 -2.65107206  CHARGE =  1.0
  H   15    (CENTRE 15)   4.74386178 -2.89875869 -0.89267518  CHARGE =  1.0
  H   16    (CENTRE 16)   0.27379329 -3.46507685  1.07734708  CHARGE =  1.0
  H   17    (CENTRE 17)  -5.57893745  1.21464958 -1.34065293  CHARGE =  1.0
CENTRE ASSIGNMENTS    1  1  1  1  1  1  1  1  1  1  1  1  1  1  1  2  2  2  2  2
CENTRE ASSIGNMENTS    2  2  2  2  2  2  2  2  2  2  3  3  3  3  3  3  3  3  3  3
CENTRE ASSIGNMENTS    3  3  3  3  3  4  4  4  4  4  4  4  4  4  4  4  4  4  4  4
CENTRE ASSIGNMENTS    5  5  5  5  5  5  5  5  5  5  5  5  5  5  5  6  6  6  6  6
CENTRE ASSIGNMENTS    6  6  6  6  6  6  6  6  6  6  7  7  7  7  7  7  7  7  7  7
CENTRE ASSIGNMENTS    7  7  7  7  7  8  8  8  8  8  8  8  8  8  8  8  8  8  8  8
CENTRE ASSIGNMENTS    9  9  9 10 10 10 11 11 11 12 12 12 13 13 13 14 14 14 15 15
CENTRE ASSIGNMENTS   15 16 16 16 17 17 17
TYPE ASSIGNMENTS      1  1  1  1  1  1  2  2  2  3  3  3  4  4  4  1  1  1  1  1
TYPE ASSIGNMENTS      1  2  2  2  3  3  3  4  4  4  1  1  1  1  1  1  2  2  2  3
TYPE ASSIGNMENTS      3  3  4  4  4  1  1  1  1  1  1  2  2  2  3  3  3  4  4  4
TYPE ASSIGNMENTS      1  1  1  1  1  1  2  2  2  3  3  3  4  4  4  1  1  1  1  1
TYPE ASSIGNMENTS      1  2  2  2  3  3  3  4  4  4  1  1  1  1  1  1  2  2  2  3
TYPE ASSIGNMENTS      3  3  4  4  4  1  1  1  1  1  1  2  2  2  3  3  3  4  4  4
TYPE ASSIGNMENTS      1  1  1  1  1  1  1  1  1  1  1  1  1  1  1  1  1  1  1  1
TYPE ASSIGNMENTS      1  1  1  1  1  1  1
EXPONENTS  0.1307093D+03 0.2380887D+02 0.6443608D+01 0.5033151D+01 0.1169596D+01
EXPONENTS  0.3803890D+00 0.5033151D+01 0.1169596D+01 0.3803890D+00 0.5033151D+01
EXPONENTS  0.1169596D+01 0.3803890D+00 0.5033151D+01 0.1169596D+01 0.3803890D+00
EXPONENTS  0.1307093D+03 0.2380887D+02 0.6443608D+01 0.5033151D+01 0.1169596D+01
EXPONENTS  0.3803890D+00 0.5033151D+01 0.1169596D+01 0.3803890D+00 0.5033151D+01
EXPONENTS  0.1169596D+01 0.3803890D+00 0.5033151D+01 0.1169596D+01 0.3803890D+00
EXPONENTS  0.9910617D+02 0.1805231D+02 0.4885660D+01 0.3780456D+01 0.8784966D+00
EXPONENTS  0.2857144D+00 0.3780456D+01 0.8784966D+00 0.2857144D+00 0.3780456D+01
EXPONENTS  0.8784966D+00 0.2857144D+00 0.3780456D+01 0.8784966D+00 0.2857144D+00
EXPONENTS  0.7161684D+02 0.1304510D+02 0.3530512D+01 0.2941249D+01 0.6834831D+00
EXPONENTS  0.2222899D+00 0.2941249D+01 0.6834831D+00 0.2222899D+00 0.2941249D+01
EXPONENTS  0.6834831D+00 0.2222899D+00 0.2941249D+01 0.6834831D+00 0.2222899D+00
EXPONENTS  0.7161684D+02 0.1304510D+02 0.3530512D+01 0.2941249D+01 0.6834831D+00
EXPONENTS  0.2222899D+00 0.2941249D+01 0.6834831D+00 0.2222899D+00 0.2941249D+01
EXPONENTS  0.6834831D+00 0.2222899D+00 0.2941249D+01 0.6834831D+00 0.2222899D+00
EXPONENTS  0.7161684D+02 0.1304510D+02 0.3530512D+01 0.2941249D+01 0.6834831D+00
EXPONENTS  0.2222899D+00 0.2941249D+01 0.6834831D+00 0.2222899D+00 0.2941249D+01
EXPONENTS  0.6834831D+00 0.2222899D+00 0.2941249D+01 0.6834831D+00 0.2222899D+00
EXPONENTS  0.7161684D+02 0.1304510D+02 0.3530512D+01 0.2941249D+01 0.6834831D+00
EXPONENTS  0.2222899D+00 0.2941249D+01 0.6834831D+00 0.2222899D+00 0.2941249D+01
EXPONENTS  0.6834831D+00 0.2222899D+00 0.2941249D+01 0.6834831D+00 0.2222899D+00
EXPONENTS  0.7161684D+02 0.1304510D+02 0.3530512D+01 0.2941249D+01 0.6834831D+00
EXPONENTS  0.2222899D+00 0.2941249D+01 0.6834831D+00 0.2222899D+00 0.2941249D+01
EXPONENTS  0.6834831D+00 0.2222899D+00 0.2941249D+01 0.6834831D+00 0.2222899D+00
EXPONENTS  0.3425251D+01 0.6239137D+00 0.1688554D+00 0.3425251D+01 0.6239137D+00
EXPONENTS  0.1688554D+00 0.3425251D+01 0.6239137D+00 0.1688554D+00 0.3425251D+01
EXPONENTS  0.6239137D+00 0.1688554D+00 0.3425251D+01 0.6239137D+00 0.1688554D+00
EXPONENTS  0.3425251D+01 0.6239137D+00 0.1688554D+00 0.3425251D+01 0.6239137D+00
EXPONENTS  0.1688554D+00 0.3425251D+01 0.6239137D+00 0.1688554D+00 0.3425251D+01
EXPONENTS  0.6239137D+00 0.1688554D+00
MO    1     MO 0.0        OCC NO =    2.0000000  ORB. ENERGY =  -19.435069
  0.42264803D+01  0.40876677D+01  0.12739475D+01 -0.63910140D-02  0.85484975D-02
  0.64516786D-02 -0.95916233D-03 -0.60314701D-03 -0.95548620D-04 -0.67937789D-02
 -0.42721105D-02 -0.67677408D-03 -0.16283543D-02 -0.10239529D-02 -0.16221134D-03
  0.35488581D-02  0.34323010D-02  0.10696983D-02 -0.50212681D-04  0.67163518D-04
  0.50689309D-04 -0.83393016D-03 -0.52439766D-03 -0.83073400D-04  0.50386946D-03
  0.31684664D-03  0.50193831D-04 -0.37201769D-03 -0.23393471D-03 -0.37059188D-04
  0.66103176D-05  0.63932114D-05  0.19924848D-05 -0.23392533D-05  0.31289403D-05
  0.23614579D-05  0.52162214D-04  0.32801000D-04  0.51962294D-05 -0.89813882D-05
 -0.56477379D-05 -0.89469657D-06  0.37623272D-04  0.23658523D-04  0.37479076D-05
 -0.53643760D-04 -0.51881909D-04 -0.16169325D-04 -0.41705640D-04  0.55784663D-04
  0.42101517D-04 -0.18334062D-03 -0.11528950D-03 -0.18263794D-04  0.18209360D-03
  0.11450534D-03  0.18139570D-04 -0.69574378D-04 -0.43750236D-04 -0.69307725D-05
 -0.34724131D-04 -0.33583667D-04 -0.10466562D-04 -0.15789339D-04  0.21119517D-04
  0.15939214D-04 -0.69273686D-05 -0.43561153D-05 -0.69008185D-06  0.26366061D-04
  0.16579687D-04  0.26265009D-05 -0.10128069D-03 -0.63688016D-04 -0.10089252D-04
  0.52011381D-05  0.50303143D-05  0.15677292D-05  0.33423762D-05 -0.44706981D-05
 -0.33741026D-05  0.79124473D-05  0.49755592D-05  0.78821217D-06 -0.10821219D-04
 -0.68046732D-05 -0.10779746D-05  0.57703219D-06  0.36285332D-06  0.57482063D-07
  0.24121869D-05  0.23329622D-05  0.72708240D-06  0.43499493D-06 -0.58184086D-06
 -0.43912398D-06  0.26513737D-05  0.16672550D-05  0.26412120D-06 -0.94739805D-06
 -0.59574932D-06 -0.94376701D-07  0.12951388D-05  0.81441802D-06  0.12901750D-06
  0.14553826D-02  0.14075827D-02  0.43868204D-03  0.73265621D-03 -0.97998687D-03
 -0.73961071D-03  0.22008154D-02  0.13839318D-02  0.21923804D-03 -0.34235831D-02
 -0.21528409D-02 -0.34104617D-03  0.63483983D-03  0.39920432D-03  0.63240671D-04
 -0.66249403D-05 -0.64073538D-05 -0.19968923D-05  0.11388604D-05  0.11014562D-05
  0.34327580D-06 -0.68554049D-04 -0.66302492D-04 -0.20663591D-04  0.25740627D-05
  0.24895214D-05  0.77587509D-06  0.74963962D-06  0.72501880D-06  0.22595669D-06
  0.11443083D-05  0.11067251D-05  0.34491788D-06 -0.15951367D-06 -0.15427468D-06
 -0.48080680D-07 -0.28437431D-04 -0.27503446D-04 -0.85716227D-05 -0.16138443D-02
 -0.15608399D-02 -0.48644562D-03
MO    2     MO 0.0        OCC NO =    2.0000000  ORB. ENERGY =  -19.380250
 -0.38632388D-02 -0.37363564D-02 -0.11644591D-02 -0.58496484D-04  0.78243773D-04
  0.59051743D-04 -0.46529214D-03 -0.29258819D-03 -0.46350884D-04 -0.65336954D-03
 -0.41085630D-03 -0.65086541D-04 -0.36557213D-03 -0.22988157D-03 -0.36417103D-04
  0.42267502D+01  0.40879288D+01  0.12740288D+01 -0.64140392D-02  0.85792956D-02
  0.64749224D-02  0.25893023D-02  0.16282228D-02  0.25793785D-03  0.87632301D-02
  0.55105543D-02  0.87296438D-03  0.28903413D-02  0.18175242D-02  0.28792637D-03
 -0.81745006D-04 -0.79060211D-04 -0.24639614D-04 -0.43883672D-04  0.58697956D-04
  0.44300223D-04 -0.16511921D-03 -0.10383139D-03 -0.16448637D-04 -0.30254378D-03
 -0.19024765D-03 -0.30138423D-04 -0.70042548D-04 -0.44044634D-04 -0.69774100D-05
 -0.58416497D-04 -0.56497893D-04 -0.17607925D-04 -0.28932483D-04  0.38699533D-04
  0.29207115D-04  0.65549659D-06  0.41219385D-06  0.65298431D-07 -0.41556893D-03
 -0.26132090D-03 -0.41397620D-04 -0.77982754D-04 -0.49037648D-04 -0.77683873D-05
 -0.34764657D-05 -0.33622863D-05 -0.10478778D-05 -0.43484492D-05  0.58164021D-05
  0.43897254D-05  0.16052846D-04  0.10094460D-04  0.15991321D-05 -0.19934577D-04
 -0.12535397D-04 -0.19858175D-05  0.20745976D-04  0.13045626D-04  0.20666464D-05
  0.33380482D-05  0.32284149D-05  0.10061559D-05  0.22773771D-05 -0.30461758D-05
 -0.22989943D-05  0.42161761D-05  0.26512447D-05  0.42000170D-06 -0.78748804D-06
 -0.49519361D-06 -0.78446987D-07 -0.36148953D-05 -0.22731431D-05 -0.36010406D-06
 -0.20854541D-04 -0.20169605D-04 -0.62859848D-05 -0.73318226D-05  0.98069051D-05
  0.74014176D-05 -0.30224380D-04 -0.19005901D-04 -0.30108541D-05  0.11966396D-05
  0.75247909D-06  0.11920533D-06 -0.14901593D-04 -0.93705213D-05 -0.14844480D-05
  0.16423161D-02  0.15883767D-02  0.49502763D-03  0.11855816D-02 -0.15858112D-02
 -0.11968354D-02  0.15758211D-02  0.99091861D-03  0.15697816D-03  0.53361453D-02
  0.33555113D-02  0.53156937D-03  0.17606177D-02  0.11071237D-02  0.17538699D-03
  0.10559322D-04  0.10212517D-04  0.31827954D-05  0.10548128D-05  0.10201690D-05
  0.31794211D-06 -0.35824876D-05 -0.34648260D-05 -0.10798349D-05  0.77141631D-06
  0.74608027D-06  0.23252063D-06  0.84885870D-06  0.82097918D-06  0.25586335D-06
 -0.10505403D-04 -0.10160368D-04 -0.31665430D-05  0.23595023D-05  0.22820079D-05
  0.71120218D-06 -0.18869736D-03 -0.18249987D-03 -0.56877239D-04 -0.33406418D-04
 -0.32309233D-04 -0.10069377D-04
MO    3     MO 0.0        OCC NO =    2.0000000  ORB. ENERGY =  -14.537752
  0.25897796D-04  0.25047221D-04  0.78061247D-05  0.51723469D-05 -0.69184319D-05
 -0.52214438D-05 -0.64553988D-04 -0.40593280D-04 -0.64306575D-05 -0.34989423D-04
 -0.22002288D-04 -0.34855321D-05 -0.57618651D-04 -0.36232154D-04 -0.57397819D-05
 -0.17812207D-03 -0.17227191D-03 -0.53689630D-04 -0.44427403D-04  0.59425241D-04
  0.44849116D-04  0.25561239D-03  0.16073593D-03  0.25463272D-04 -0.26496375D-03
 -0.16661631D-03 -0.26394823D-04  0.13570003D-03  0.85331819D-04  0.13517994D-04
  0.34311261D+01  0.33184358D+01  0.10342115D+01 -0.62004664D-02  0.82936247D-02
  0.62593223D-02 -0.35211011D-02 -0.22141629D-02 -0.35076060D-03  0.68549794D-03
  0.43105950D-03  0.68287067D-04 -0.48837144D-02 -0.30710106D-02 -0.48649968D-03
  0.14693587D-02  0.14210998D-02  0.44289474D-03  0.86718715D-03 -0.11599329D-02
 -0.87541864D-03 -0.23290340D-02 -0.14645591D-02 -0.23201076D-03  0.33287328D-02
  0.20931965D-02  0.33159750D-03  0.18692397D-03  0.11754281D-03  0.18620756D-04
 -0.38579310D-04 -0.37312229D-04 -0.11628592D-04 -0.55814982D-04  0.74657048D-04
  0.56344788D-04 -0.22992296D-04 -0.14458173D-04 -0.22904175D-05 -0.25983415D-03
 -0.16339069D-03 -0.25883830D-04 -0.17219162D-04 -0.10827871D-04 -0.17153167D-05
  0.89660589D-05  0.86715818D-05  0.27025533D-05 -0.43792092D-04  0.58575460D-04
  0.44207774D-04 -0.68400668D-04 -0.43012176D-04 -0.68138512D-05 -0.14896323D-03
 -0.93672077D-04 -0.14839231D-04 -0.46565233D-04 -0.29281468D-04 -0.46386765D-05
  0.14560648D-02  0.14082425D-02  0.43888768D-03  0.86099962D-03 -0.11516565D-02
 -0.86917237D-03  0.22310615D-02  0.14029513D-02  0.22225106D-03  0.46613921D-03
  0.29312085D-03  0.46435267D-04 -0.32817252D-02 -0.20636368D-02 -0.32691475D-03
 -0.45749552D-04 -0.44246975D-04 -0.13789849D-04 -0.62800939D-04  0.84001329D-04
  0.63397056D-04  0.20148256D-03  0.12669764D-03  0.20071035D-04 -0.14931691D-03
 -0.93894477D-04 -0.14874463D-04  0.90157836D-04  0.56693666D-04  0.89812293D-05
  0.55570555D-04  0.53745421D-04  0.16750100D-04  0.46393974D-05  0.44870232D-05
  0.13984091D-05 -0.12985817D-04 -0.12559317D-04 -0.39141904D-05 -0.31682484D-04
 -0.30641919D-04 -0.95497477D-05 -0.49072297D-05 -0.47460590D-05 -0.14791393D-05
  0.10853318D-03  0.10496857D-03  0.32714118D-04  0.60873391D-04  0.58874093D-04
  0.18348483D-04 -0.19871781D-02 -0.19219122D-02 -0.59897607D-03 -0.13878692D-05
 -0.13422867D-05 -0.41833213D-06
MO    4     MO 0.0        OCC NO =    2.0000000  ORB. ENERGY =  -10.485041
  0.21384189D-02  0.20681856D-02  0.64456312D-03  0.11722129D-02 -0.15679295D-02
 -0.11833398D-02 -0.34515303D-02 -0.21704149D-02 -0.34383018D-03  0.42563832D-02
  0.26765280D-02  0.42400700D-03 -0.11902039D-02 -0.74843217D-03 -0.11856423D-03
  0.16843925D-02  0.16290711D-02  0.50771032D-03  0.16229866D-02 -0.21708757D-02
 -0.16383923D-02 -0.10396816D-02 -0.65377971D-03 -0.10356969D-03 -0.41542716D-02
 -0.26123175D-02 -0.41383497D-03 -0.12682314D-02 -0.79749796D-03 -0.12633708D-03
 -0.80599220D-04 -0.77952056D-04 -0.24294251D-04 -0.96747633D-04  0.12940777D-03
  0.97665978D-04 -0.16671672D-03 -0.10483594D-03 -0.16607775D-04 -0.78297746D-04
 -0.49235724D-04 -0.77997658D-05  0.46632095D-04  0.29323513D-04  0.46453371D-05
 -0.13691787D-01 -0.13242100D-01 -0.41269843D-02  0.96939018D-03 -0.12966377D-02
 -0.97859180D-03  0.33347607D-02  0.20969870D-02  0.33219798D-03  0.95575931D-03
  0.60100710D-03  0.95209622D-04  0.20514079D-02  0.12899804D-02  0.20435456D-03
 -0.54322997D-03 -0.52538838D-03 -0.16374061D-03 -0.40078898D-04  0.53608764D-04
  0.40459334D-04 -0.14524194D-04 -0.91332026D-05 -0.14468527D-05  0.10632107D-03
  0.66857543D-04  0.10591358D-04 -0.76375636D-05 -0.48027049D-05 -0.76082915D-06
  0.98361277D-04  0.95130745D-04  0.29648098D-04 -0.39449376D-05  0.52766727D-05
  0.39823836D-05 -0.37234237D-04 -0.23413887D-04 -0.37091531D-05 -0.12408667D-04
 -0.78029029D-05 -0.12361109D-05 -0.13311843D-04 -0.83708441D-05 -0.13260823D-05
  0.43262851D-04  0.41841946D-04  0.13040307D-04 -0.20189696D-04  0.27005350D-04
  0.20381340D-04  0.28855686D-04  0.18145230D-04  0.28745092D-05 -0.48612221D-04
 -0.30568669D-04 -0.48425908D-05 -0.71609708D-04 -0.45030106D-04 -0.71335254D-05
  0.26861626D+01  0.25979395D+01  0.80966428D+00 -0.55298399D-02  0.73966076D-02
  0.55823301D-02 -0.23472072D-03 -0.14759869D-03 -0.23382112D-04 -0.65760706D-03
 -0.41352096D-03 -0.65508668D-04 -0.24964294D-03 -0.15698218D-03 -0.24868614D-04
 -0.40023424D-04 -0.38708913D-04 -0.12063878D-04 -0.18592829D-04 -0.17982175D-04
 -0.56042585D-05 -0.14752960D-03 -0.14268421D-03 -0.44468436D-04  0.24007730D-05
  0.23219231D-05  0.72364201D-06 -0.96305438D-06 -0.93142427D-06 -0.29028426D-06
 -0.89904467D-04 -0.86951686D-04 -0.27099043D-04 -0.75578384D-05 -0.73096123D-05
 -0.22780869D-05 -0.23462305D-03 -0.22691720D-03 -0.70720179D-04 -0.44301376D-03
 -0.42846362D-03 -0.13353340D-03
MO    5     MO 0.0        OCC NO =    2.0000000  ORB. ENERGY =  -10.418529
 -0.41567087D-04 -0.40201877D-04 -0.12529169D-04 -0.53673596D-04  0.71792771D-04
  0.54183075D-04  0.11589931D-03  0.72880598D-04  0.11545511D-04 -0.12251200D-03
 -0.77038834D-04 -0.12204246D-04  0.48211430D-04  0.30316641D-04  0.48026653D-05
 -0.94275275D-04 -0.91178941D-04 -0.28416493D-04 -0.44139974D-04  0.59040782D-04
  0.44558959D-04  0.45444002D-03  0.28576408D-03  0.45269831D-04 -0.12569745D-04
 -0.79041927D-05 -0.12521569D-05  0.24161790D-03  0.15193582D-03  0.24069186D-04
  0.22439231D-02  0.21702247D-02  0.67636424D-03  0.10617693D-02 -0.14202023D-02
 -0.10718478D-02  0.29553915D-02  0.18584295D-02  0.29440645D-03 -0.41710778D-02
 -0.26228857D-02 -0.41550916D-03 -0.38553773D-03 -0.24243647D-03 -0.38406010D-04
  0.26840474D+01  0.25958938D+01  0.80902672D+00 -0.63253235D-02  0.84606312D-02
  0.63853646D-02 -0.21982690D-03 -0.13823306D-03 -0.21898438D-04  0.15175259D-04
  0.95426100D-05  0.15117098D-05  0.10035634D-03  0.63106762D-04  0.99971713D-05
 -0.32297724D-01 -0.31236953D-01 -0.97351938D-02  0.11052267D-02 -0.14783300D-02
 -0.11157177D-02  0.22723881D-02  0.14289386D-02  0.22636788D-03  0.30950001D-02
  0.19462191D-02  0.30831381D-03 -0.17954768D-02 -0.11290440D-02 -0.17885953D-03
 -0.15694511D-02 -0.15179048D-02 -0.47306461D-03 -0.53133901D-04  0.71070885D-04
  0.53638257D-04 -0.70025995D-04 -0.44034225D-04 -0.69757611D-05  0.38629209D-04
  0.24291083D-04  0.38481157D-05 -0.34091491D-04 -0.21437644D-04 -0.33960831D-05
 -0.15042807D-01 -0.14548748D-01 -0.45342091D-02  0.86951121D-04 -0.11630415D-03
 -0.87776477D-04  0.42451221D-03  0.26694467D-03  0.42288520D-04 -0.33254155D-03
 -0.20911105D-03 -0.33126703D-04 -0.10524963D-03 -0.66183795D-04 -0.10484625D-04
  0.17234233D-01  0.16668200D-01  0.51947499D-02  0.10052982D-02 -0.13446676D-02
 -0.10148407D-02 -0.37198944D-02 -0.23391694D-02 -0.37056374D-03 -0.82607599D-03
 -0.51945875D-03 -0.82290993D-04 -0.21429624D-02 -0.13475523D-02 -0.21347492D-03
 -0.22588840D-02 -0.21846943D-02 -0.68087379D-03  0.72503198D-04  0.70121936D-04
  0.21853945D-04  0.60307664D-04  0.58326947D-04  0.18177962D-04 -0.23276398D-04
 -0.22511919D-04 -0.70159819D-05 -0.40159201D-05 -0.38840231D-05 -0.12104803D-05
  0.10323003D-04  0.99839591D-05  0.31115640D-05 -0.39716378D-04 -0.38411952D-04
 -0.11971328D-04 -0.11701670D-03 -0.11317346D-03 -0.35271224D-04 -0.37334674D-04
 -0.36108472D-04 -0.11253433D-04
MO    6     MO 0.0        OCC NO =    2.0000000  ORB. ENERGY =  -10.402898
  0.47143916D-05  0.45595543D-05  0.14210139D-05  0.20804472D-05 -0.27827663D-05
 -0.21001952D-05 -0.17162626D-05 -0.10792320D-05 -0.17096848D-06  0.76902894D-05
  0.48358603D-05  0.76608152D-06 -0.91369190D-05 -0.57455398D-05 -0.91019004D-06
 -0.48265362D-04 -0.46680156D-04 -0.14548166D-04 -0.13639462D-04  0.18243882D-04
  0.13768930D-04  0.82063911D-04  0.51603989D-04  0.81749389D-05 -0.98620396D-05
 -0.62015151D-05 -0.98242419D-06 -0.11614522D-04 -0.73035234D-05 -0.11570008D-05
  0.22638709D-02  0.21895174D-02  0.68237694D-03  0.10632222D-02 -0.14221455D-02
 -0.10733145D-02 -0.28804890D-02 -0.18113288D-02 -0.28694491D-03 -0.49400416D-03
 -0.31064307D-03 -0.49211082D-04  0.41672478D-02  0.26204772D-02  0.41512762D-03
  0.15475732D-01  0.14967455D-01  0.46647018D-02  0.12765162D-04 -0.17074436D-04
 -0.12886331D-04 -0.24321715D-03 -0.15294147D-03 -0.24228498D-04  0.13487757D-03
  0.84814637D-04  0.13436063D-04  0.44636707D-03  0.28068759D-03  0.44465631D-04
 -0.59831197D-02 -0.57866128D-02 -0.18034345D-02 -0.27785675D-04  0.37165585D-04
  0.28049422D-04  0.15270731D-03  0.96026453D-04  0.15212204D-04  0.69722360D-04
  0.43843291D-04  0.69455139D-05  0.45348090D-04  0.28516096D-04  0.45174287D-05
 -0.50826108D-01 -0.49156799D-01 -0.15320027D-01  0.11669091D-02 -0.15608352D-02
 -0.11779856D-02  0.10284949D-02  0.64674517D-03  0.10245530D-03  0.42022862D-02
  0.26425104D-02  0.41861804D-03  0.16669170D-03  0.10482022D-03  0.16605283D-04
  0.26837434D+01  0.25955998D+01  0.80893507D+00 -0.64268176D-02  0.85963878D-02
  0.64878221D-02  0.11936934D-03  0.75062647D-04  0.11891184D-04  0.19821473D-03
  0.12464274D-03  0.19745505D-04 -0.20845281D-03 -0.13108072D-03 -0.20765388D-04
  0.26061241D-04  0.25205298D-04  0.78553904D-05 -0.48844702D-05  0.65333735D-05
  0.49308345D-05  0.30870326D-05  0.19412089D-05  0.30752011D-06  0.11970776D-04
  0.75275450D-05  0.11924896D-05  0.40429990D-05  0.25423462D-05  0.40275036D-06
 -0.62366916D-04 -0.60318566D-04 -0.18798662D-04 -0.27017770D-04 -0.26130411D-04
 -0.81437078D-05  0.13150995D-04  0.12719070D-04  0.39639784D-05  0.85924673D-04
  0.83102603D-04  0.25899451D-04  0.69058074D-04  0.66789963D-04  0.20815514D-04
 -0.22432376D-02 -0.21695617D-02 -0.67615763D-03 -0.22490688D-02 -0.21752015D-02
 -0.67791528D-03 -0.11020755D-03 -0.10658794D-03 -0.33218807D-04  0.37545763D-06
  0.36312628D-06  0.11317060D-06
MO    7     MO 0.0        OCC NO =    2.0000000  ORB. ENERGY =  -10.388774
 -0.65240582D-04 -0.63097851D-04 -0.19664844D-04 -0.22891875D-04  0.30619732D-04
  0.23109168D-04  0.96881373D-04  0.60921607D-04  0.96510061D-05  0.44322422D-04
  0.27871129D-04  0.44152550D-05 -0.31213803D-04 -0.19628077D-04 -0.31094172D-05
 -0.32132202D-05 -0.31076867D-05 -0.96853021D-06  0.69290228D-06 -0.92681277D-06
 -0.69947943D-06  0.10979451D-04  0.69041734D-05  0.10937371D-05  0.15808235D-04
  0.99406424D-05  0.15747648D-05 -0.25937352D-04 -0.16310103D-04 -0.25837943D-05
 -0.47332127D-05 -0.45777573D-05 -0.14266870D-05 -0.40870878D-04  0.54668102D-04
  0.41258832D-04 -0.53727469D-04 -0.33785274D-04 -0.53521551D-05  0.85418749D-04
  0.53713601D-04  0.85091369D-05 -0.56723324D-04 -0.35669148D-04 -0.56505924D-05
  0.35598595D-01  0.34429411D-01  0.10730144D-01  0.95581729D-03 -0.12784828D-02
 -0.96489007D-03 -0.22411425D-02 -0.14092905D-02 -0.22325530D-03 -0.31803850D-02
 -0.19999115D-02 -0.31681958D-03  0.17689215D-02  0.11123453D-02  0.17621418D-03
  0.26730787D+01  0.25852854D+01  0.80572053D+00 -0.65812968D-02  0.88030161D-02
  0.66437676D-02  0.19223766D-03  0.12088420D-03  0.19150089D-04 -0.33427028D-04
 -0.21019812D-04 -0.33298914D-05 -0.14027964D-03 -0.88211603D-04 -0.13974200D-04
 -0.23749240D+00 -0.22969231D+00 -0.71585062D-01  0.16069474D-02 -0.21494220D-02
 -0.16222008D-02  0.33903927D-02  0.21319699D-02  0.33773985D-03 -0.19807215D-02
 -0.12455308D-02 -0.19731301D-03 -0.15969582D-02 -0.10042102D-02 -0.15908376D-03
  0.11034993D-02  0.10672565D-02  0.33261723D-03 -0.11680319D-03  0.15623371D-03
  0.11791191D-03  0.26373250D-03  0.16584207D-03  0.26272170D-04  0.34494547D-03
  0.21691097D-03  0.34362341D-04 -0.12112508D-04 -0.76166702D-05 -0.12066085D-05
  0.87869817D-03  0.84983861D-03  0.26485758D-03 -0.91770997D-05  0.12275112D-04
  0.92642104D-05  0.14423337D-04  0.90697814D-05  0.14368058D-05  0.18199383D-04
  0.11444260D-04  0.18129631D-05  0.23988762D-05  0.15084777D-05  0.23896822D-06
  0.24025163D-04  0.23236092D-04  0.72416749D-05 -0.22598144D-02 -0.21855942D-02
 -0.68115423D-03 -0.22621080D-02 -0.21878124D-02 -0.68184556D-03  0.24764677D-03
  0.23951318D-03  0.74645795D-04  0.24183688D-03  0.23389410D-03  0.72894574D-04
 -0.54299443D-05 -0.52516057D-05 -0.16366961D-05 -0.40780556D-04 -0.39441179D-04
 -0.12292093D-04 -0.22165664D-04 -0.21437666D-04 -0.66811840D-05  0.26520400D-05
  0.25649377D-05  0.79937904D-06
MO    8     MO 0.0        OCC NO =    2.0000000  ORB. ENERGY =  -10.384596
  0.21907905D-05  0.21188372D-05  0.66034899D-06 -0.66196845D-06  0.88543628D-06
  0.66825197D-06 -0.13854289D-04 -0.87119489D-05 -0.13801191D-05 -0.12183797D-04
 -0.76614983D-05 -0.12137100D-05 -0.65556168D-05 -0.41223478D-05 -0.65304915D-06
  0.34218671D-05  0.33094809D-05  0.10314206D-05  0.24933158D-05 -0.33350113D-05
 -0.25169827D-05 -0.22040561D-05 -0.13859697D-05 -0.21956088D-06 -0.19942430D-04
 -0.12540335D-04 -0.19865998D-05 -0.47890394D-07 -0.30114765D-07 -0.47706847D-08
  0.12203050D-03  0.11802259D-03  0.36782486D-04 -0.19130020D-04  0.25587948D-04
  0.19311606D-04 -0.12369118D-03 -0.77780331D-04 -0.12321711D-04 -0.19638003D-03
 -0.12348904D-03 -0.19562738D-04 -0.83421854D-04 -0.52457900D-04 -0.83102128D-05
  0.51716211D-02  0.50017668D-02  0.15588322D-02  0.53934088D-04 -0.72141200D-04
 -0.54446040D-04 -0.22232056D-03 -0.13980113D-03 -0.22146848D-04 -0.22662283D-03
 -0.14250652D-03 -0.22575427D-04  0.12884429D-03  0.81020746D-04  0.12835047D-04
  0.24091944D+00  0.23300680D+00  0.72618042D-01  0.45074859D-03 -0.60291266D-03
 -0.45502718D-03 -0.34935221D-02 -0.21968204D-02 -0.34801326D-03  0.18598903D-02
  0.11695489D-02  0.18527620D-03  0.16305942D-02  0.10253614D-02  0.16243447D-03
  0.26730615D+01  0.25852687D+01  0.80571534D+00 -0.64112235D-02  0.85755294D-02
  0.64720800D-02  0.40305103D-03  0.25344930D-03  0.40150628D-04 -0.18006092D-03
 -0.11322714D-03 -0.17937081D-04 -0.20389738D-04 -0.12821615D-04 -0.20311592D-05
  0.54648874D-01  0.52854012D-01  0.16472287D-01  0.91656449D-03 -0.12259791D-02
 -0.92526468D-03 -0.11583021D-02 -0.72837144D-03 -0.11538627D-03 -0.41478481D-02
 -0.26082782D-02 -0.41319508D-03 -0.10270326D-03 -0.64582568D-04 -0.10230964D-04
 -0.38556736D-04 -0.37290397D-04 -0.11621788D-04 -0.14077377D-05  0.18829629D-05
  0.14211002D-05  0.16572202D-04  0.10421046D-04  0.16508687D-05 -0.23732603D-04
 -0.14923698D-04 -0.23641645D-05 -0.29108456D-04 -0.18304178D-04 -0.28996894D-05
 -0.84546213D-05 -0.81769416D-05 -0.25483955D-05 -0.15113774D-03 -0.14617385D-03
 -0.45556003D-04 -0.16299047D-03 -0.15763729D-03 -0.49128657D-04 -0.22462952D-02
 -0.21725189D-02 -0.67707926D-03 -0.22561507D-02 -0.21820507D-02 -0.68004989D-03
 -0.15540884D-04 -0.15030467D-04 -0.46843400D-05  0.44388549D-06  0.42930673D-06
  0.13379615D-06 -0.44193418D-04 -0.42741950D-04 -0.13320799D-04 -0.71495640D-06
 -0.69147470D-06 -0.21550246D-06
MO    9     MO 0.0        OCC NO =    2.0000000  ORB. ENERGY =   -1.150403
 -0.67140432D+00 -0.64935302D+00 -0.20237497D+00 -0.13384568D+00  0.17902941D+00
  0.13511617D+00 -0.32544483D-02 -0.20464844D-02 -0.32419752D-03 -0.20484373D+00
 -0.12881123D+00 -0.20405864D-01 -0.35939073D-01 -0.22599454D-01 -0.35801332D-02
 -0.57132714D+00 -0.55256274D+00 -0.17220967D+00 -0.11001900D+00  0.14715930D+00
  0.11106332D+00  0.48270895D-01  0.30354034D-01  0.48085890D-02  0.20992089D+00
  0.13200389D+00  0.20911633D-01  0.60981209D-01  0.38346620D-01  0.60747489D-02
 -0.32393343D-01 -0.31329431D-01 -0.97640153D-02 -0.54376103D-02  0.72732431D-02
  0.54892251D-02 -0.10007279D-01 -0.62928456D-02 -0.99689247D-03  0.43029704D-02
  0.27058233D-02  0.42864787D-03 -0.68215941D-02 -0.42896014D-02 -0.67954493D-03
 -0.56610422D-01 -0.54751136D-01 -0.17063538D-01 -0.82663526D-02  0.11056914D-01
  0.83448182D-02 -0.17601747D-01 -0.11068451D-01 -0.17534286D-02 -0.46087117D-02
 -0.28980816D-02 -0.45910482D-03 -0.11567897D-01 -0.72742041D-02 -0.11523561D-02
 -0.13055050D-01 -0.12626276D-01 -0.39350589D-02 -0.17386770D-02  0.23256210D-02
  0.17551808D-02 -0.35410035D-02 -0.22266780D-02 -0.35274321D-03 -0.29088758D-02
 -0.18291792D-02 -0.28977271D-03  0.66149184D-03  0.41596382D-03  0.65895658D-04
 -0.41180019D-02 -0.39827521D-02 -0.12412499D-02 -0.54902536D-03  0.73436577D-03
  0.55423680D-03 -0.11199522D-02 -0.70425603D-03 -0.11156599D-03 -0.41217009D-03
 -0.25918361D-03 -0.41059039D-04  0.47583404D-03  0.29921722D-03  0.47401034D-04
 -0.85059392D-02 -0.82265741D-02 -0.25638638D-02 -0.10946831D-02  0.14642270D-02
  0.11050740D-02 -0.22714643D-02 -0.14283577D-02 -0.22627586D-03  0.38411748D-03
  0.24154338D-03  0.38264530D-04  0.14514758D-02  0.91272692D-03  0.14459128D-03
 -0.35233941D+00 -0.34076734D+00 -0.10620230D+00 -0.49595459D-01  0.66337933D-01
  0.50066228D-01 -0.62899007D-01 -0.39552583D-01 -0.62657937D-02 -0.24510408D-01
 -0.15412802D-01 -0.24416468D-02 -0.39274561D-01 -0.24696898D-01 -0.39124035D-02
  0.17230473D-02  0.16664563D-02  0.51936164D-03  0.32352697D-03  0.31290120D-03
  0.97517638D-04  0.14803215D-02  0.14317025D-02  0.44619912D-03  0.91321453D-04
  0.88322133D-04  0.27526151D-04  0.11307446D-03  0.10936069D-03  0.34082951D-04
  0.67143332D-03  0.64938107D-03  0.20238372D-03  0.18919720D-03  0.18298330D-03
  0.57027901D-04  0.28141129D-02  0.27216875D-02  0.84823111D-03  0.25768284D-01
  0.24921962D-01  0.77670870D-02
MO   10     MO 0.0        OCC NO =    2.0000000  ORB. ENERGY =   -1.063844
 -0.69289817D+00 -0.67014094D+00 -0.20885366D+00 -0.14209681D+00  0.19006596D+00
  0.14344562D+00 -0.42129203D-01 -0.26491973D-01 -0.41967736D-02 -0.14101063D+00
 -0.88671268D-01 -0.14047019D-01 -0.46462075D-01 -0.29216600D-01 -0.46284003D-02
  0.71095714D+00  0.68760679D+00  0.21429700D+00  0.14122462D+00 -0.18889933D+00
 -0.14256514D+00 -0.75727982D-01 -0.47619787D-01 -0.75437743D-02 -0.19776931D+00
 -0.12436265D+00 -0.19701133D-01 -0.73744184D-01 -0.46372322D-01 -0.73461549D-02
  0.50843086D-01  0.49173219D-01  0.15325145D-01  0.88066927D-02 -0.11779663D-01
 -0.88902873D-02  0.13443006D-01  0.84533228D-02  0.13391483D-02 -0.31054468D-02
 -0.19527883D-02 -0.30935447D-03  0.11394899D-01  0.71654185D-02  0.11351227D-02
  0.26001126D-01  0.25147157D-01  0.78372705D-02  0.40247292D-02 -0.53834005D-02
 -0.40629327D-02  0.18131785D-02  0.11401753D-02  0.18062292D-03  0.11238041D-01
  0.70667817D-02  0.11194969D-02  0.44928824D-02  0.28252450D-02  0.44756628D-03
  0.15229069D-02  0.14728892D-02  0.45903524D-03  0.24870652D-03 -0.33266506D-03
 -0.25106728D-03 -0.16299267D-02 -0.10249417D-02 -0.16236798D-03  0.20114490D-02
  0.12648531D-02  0.20037399D-03 -0.35719839D-03 -0.22461593D-03 -0.35582938D-04
  0.51063155D-02  0.49386061D-02  0.15391478D-02  0.70098928D-03 -0.93762979D-03
 -0.70764319D-03  0.96902641D-03  0.60934981D-03  0.96531247D-04  0.12594316D-02
  0.79196440D-03  0.12546047D-03 -0.41947735D-03 -0.26377861D-03 -0.41786964D-04
  0.15281571D-01  0.14779670D-01  0.46061777D-02  0.21076174D-02 -0.28191085D-02
 -0.21276233D-02  0.37895726D-02  0.23829850D-02  0.37750486D-03 -0.15164273D-03
 -0.95357017D-04 -0.15106154D-04 -0.28545824D-02 -0.17950380D-02 -0.28436418D-03
  0.11267202D+00  0.10897148D+00  0.33961650D-01  0.15111021D-01 -0.20212211D-01
 -0.15254457D-01 -0.15804718D-01 -0.99384307D-02 -0.15744144D-02  0.17690384D+00
  0.11124188D+00  0.17622583D-01  0.21302529D-01  0.13395602D-01  0.21220884D-02
 -0.51893341D-03 -0.50188980D-03 -0.15641713D-03 -0.31896988D-04 -0.30849378D-04
 -0.96144036D-05  0.10097548D-02  0.97659089D-03  0.30436073D-03 -0.15424913D-03
 -0.14918304D-03 -0.46493837D-04 -0.18271665D-03 -0.17671559D-03 -0.55074530D-04
 -0.11178059D-02 -0.10810932D-02 -0.33692954D-03 -0.44844732D-03 -0.43371872D-03
 -0.13517118D-03 -0.47596569D-02 -0.46033330D-02 -0.14346578D-02  0.29894358D-01
  0.28912522D-01  0.90107701D-02
MO   11     MO 0.0        OCC NO =    2.0000000  ORB. ENERGY =   -0.961524
  0.11788894D-01  0.11401705D-01  0.35534134D-02  0.24481221D-02 -0.32745611D-02
 -0.24713601D-02  0.16800532D-01  0.10564625D-01  0.16736141D-02  0.95476492D-02
  0.60038180D-02  0.95110565D-03  0.86922906D-02  0.54659456D-02  0.86589761D-03
  0.15310980D+00  0.14808114D+00  0.46150422D-01  0.31496353D-01 -0.42128916D-01