 opt serine b3lyp
GAUSSIAN             28 MOL ORBITALS    126 PRIMITIVES       14 NUCLEI
  O    1    (CENTRE  1)   3.71302534 -1.82731539  0.63677155  CHARGE =  8.0
  O    2    (CENTRE  2)  -1.47454367 -3.09211619 -1.20192580  CHARGE =  8.0
  O    3    (CENTRE  3)  -3.43825464 -0.26978449  1.62986133  CHARGE =  8.0
  N    4    (CENTRE  4)  -0.54645264  3.94181319 -0.53990003  CHARGE =  7.0
  C    5    (CENTRE  5)   0.29927475  1.22327386 -0.92399095  CHARGE =  6.0
  C    6    (CENTRE  6)   2.86205798  0.80440725  0.57683681  CHARGE =  6.0
  C    7    (CENTRE  7)  -1.76048290 -0.71773407  0.02039038  CHARGE =  6.0
  H    8    (CENTRE  8)   0.64032909  0.90533386 -2.96602265  CHARGE =  1.0
  H    9    (CENTRE  9)   4.29240085  2.11330589 -0.24688239  CHARGE =  1.0
  H   10    (CENTRE 10)   2.56178748  1.36352835  2.57487523  CHARGE =  1.0
  H   11    (CENTRE 11)  -1.45933990  3.89003661  1.25334848  CHARGE =  1.0
  H   12    (CENTRE 12)  -2.11657878  4.15297269 -1.77628190  CHARGE =  1.0
  H   13    (CENTRE 13)   3.96744110 -2.20297954 -1.25277313  CHARGE =  1.0
  H   14    (CENTRE 14)  -2.86778663 -4.16084392 -0.36403748  CHARGE =  1.0
CENTRE ASSIGNMENTS    1  1  1  1  1  1  1  1  1  1  1  1  1  1  1  2  2  2  2  2
CENTRE ASSIGNMENTS    2  2  2  2  2  2  2  2  2  2  3  3  3  3  3  3  3  3  3  3
CENTRE ASSIGNMENTS    3  3  3  3  3  4  4  4  4  4  4  4  4  4  4  4  4  4  4  4
CENTRE ASSIGNMENTS    5  5  5  5  5  5  5  5  5  5  5  5  5  5  5  6  6  6  6  6
CENTRE ASSIGNMENTS    6  6  6  6  6  6  6  6  6  6  7  7  7  7  7  7  7  7  7  7
CENTRE ASSIGNMENTS    7  7  7  7  7  8  8  8  9  9  9 10 10 10 11 11 11 12 12 12
CENTRE ASSIGNMENTS   13 13 13 14 14 14
TYPE ASSIGNMENTS      1  1  1  1  1  1  2  2  2  3  3  3  4  4  4  1  1  1  1  1
TYPE ASSIGNMENTS      1  2  2  2  3  3  3  4  4  4  1  1  1  1  1  1  2  2  2  3
TYPE ASSIGNMENTS      3  3  4  4  4  1  1  1  1  1  1  2  2  2  3  3  3  4  4  4
TYPE ASSIGNMENTS      1  1  1  1  1  1  2  2  2  3  3  3  4  4  4  1  1  1  1  1
TYPE ASSIGNMENTS      1  2  2  2  3  3  3  4  4  4  1  1  1  1  1  1  2  2  2  3
TYPE ASSIGNMENTS      3  3  4  4  4  1  1  1  1  1  1  1  1  1  1  1  1  1  1  1
TYPE ASSIGNMENTS      1  1  1  1  1  1
EXPONENTS  0.1307093D+03 0.2380887D+02 0.6443608D+01 0.5033151D+01 0.1169596D+01
EXPONENTS  0.3803890D+00 0.5033151D+01 0.1169596D+01 0.3803890D+00 0.5033151D+01
EXPONENTS  0.1169596D+01 0.3803890D+00 0.5033151D+01 0.1169596D+01 0.3803890D+00
EXPONENTS  0.1307093D+03 0.2380887D+02 0.6443608D+01 0.5033151D+01 0.1169596D+01
EXPONENTS  0.3803890D+00 0.5033151D+01 0.1169596D+01 0.3803890D+00 0.5033151D+01
EXPONENTS  0.1169596D+01 0.3803890D+00 0.5033151D+01 0.1169596D+01 0.3803890D+00
EXPONENTS  0.1307093D+03 0.2380887D+02 0.6443608D+01 0.5033151D+01 0.1169596D+01
EXPONENTS  0.3803890D+00 0.5033151D+01 0.1169596D+01 0.3803890D+00 0.5033151D+01
EXPONENTS  0.1169596D+01 0.3803890D+00 0.5033151D+01 0.1169596D+01 0.3803890D+00
EXPONENTS  0.9910617D+02 0.1805231D+02 0.4885660D+01 0.3780456D+01 0.8784966D+00
EXPONENTS  0.2857144D+00 0.3780456D+01 0.8784966D+00 0.2857144D+00 0.3780456D+01
EXPONENTS  0.8784966D+00 0.2857144D+00 0.3780456D+01 0.8784966D+00 0.2857144D+00
EXPONENTS  0.7161684D+02 0.1304510D+02 0.3530512D+01 0.2941249D+01 0.6834831D+00
EXPONENTS  0.2222899D+00 0.2941249D+01 0.6834831D+00 0.2222899D+00 0.2941249D+01
EXPONENTS  0.6834831D+00 0.2222899D+00 0.2941249D+01 0.6834831D+00 0.2222899D+00
EXPONENTS  0.7161684D+02 0.1304510D+02 0.3530512D+01 0.2941249D+01 0.6834831D+00
EXPONENTS  0.2222899D+00 0.2941249D+01 0.6834831D+00 0.2222899D+00 0.2941249D+01
EXPONENTS  0.6834831D+00 0.2222899D+00 0.2941249D+01 0.6834831D+00 0.2222899D+00
EXPONENTS  0.7161684D+02 0.1304510D+02 0.3530512D+01 0.2941249D+01 0.6834831D+00
EXPONENTS  0.2222899D+00 0.2941249D+01 0.6834831D+00 0.2222899D+00 0.2941249D+01
EXPONENTS  0.6834831D+00 0.2222899D+00 0.2941249D+01 0.6834831D+00 0.2222899D+00
EXPONENTS  0.3425251D+01 0.6239137D+00 0.1688554D+00 0.3425251D+01 0.6239137D+00
EXPONENTS  0.1688554D+00 0.3425251D+01 0.6239137D+00 0.1688554D+00 0.3425251D+01
EXPONENTS  0.6239137D+00 0.1688554D+00 0.3425251D+01 0.6239137D+00 0.1688554D+00
EXPONENTS  0.3425251D+01 0.6239137D+00 0.1688554D+00 0.3425251D+01 0.6239137D+00
EXPONENTS  0.1688554D+00
MO    1     MO 0.0        OCC NO =    2.0000000  ORB. ENERGY =  -18.940106
  0.81853041D-03  0.79164698D-03  0.24672179D-03 -0.15020351D-04  0.20090934D-04
  0.15162927D-04  0.12945078D-05  0.81402126D-06  0.12895464D-06 -0.14304451D-04
 -0.89950224D-05 -0.14249627D-05 -0.62965522D-04 -0.39594410D-04 -0.62724198D-05
  0.42244391D+01  0.40856936D+01  0.12733322D+01 -0.68563461D-02  0.91709168D-02
  0.69214278D-02 -0.44910642D-02 -0.28241017D-02 -0.44738515D-03  0.21933513D-02
  0.13792381D-02  0.21849449D-03  0.49661337D-02  0.31228381D-02  0.49471003D-03
  0.37818503D-02  0.36576410D-02  0.11399269D-02 -0.45337515D-04  0.60642589D-04
  0.45767866D-04 -0.29650643D-03 -0.18645120D-03 -0.29537003D-04 -0.10707430D-02
 -0.67331190D-03 -0.10666392D-03 -0.18426723D-03 -0.11587218D-03 -0.18356100D-04
  0.50246226D-05  0.48595963D-05  0.15145239D-05 -0.21517980D-05  0.28782037D-05
  0.21722233D-05  0.44963833D-04  0.28274465D-04  0.44791502D-05  0.45123352D-04
  0.28374775D-04  0.44950411D-05  0.58997508D-05  0.37099216D-05  0.58771392D-06
 -0.70996171D-04 -0.68664405D-04 -0.21399696D-04 -0.55501139D-04  0.74237257D-04
  0.56027965D-04 -0.53045494D-04 -0.33356430D-04 -0.52842190D-05 -0.27400024D-03
 -0.17229871D-03 -0.27295010D-04 -0.14995966D-03 -0.94298659D-04 -0.14938492D-04
 -0.21572218D-04 -0.20863710D-04 -0.65023072D-05 -0.51082617D-05  0.68327127D-05
  0.51567502D-05 -0.29300889D-04 -0.18425185D-04 -0.29188589D-05 -0.16988718D-04
 -0.10682962D-04 -0.16923606D-05  0.14896827D-04  0.93675247D-05  0.14839733D-05
  0.16001654D-02  0.15476103D-02  0.48232254D-03  0.76988372D-03 -0.10297817D-02
 -0.77719159D-03 -0.59739486D-03 -0.37565792D-03 -0.59510526D-04  0.38348244D-02
  0.24114405D-02  0.38201268D-03  0.20985529D-02  0.13196264D-02  0.20905099D-03
 -0.53550018D-04 -0.51791246D-04 -0.16141069D-04  0.46727254D-05  0.45192565D-05
  0.14084549D-05 -0.37833461D-05 -0.36590877D-05 -0.11403778D-05 -0.24032247D-04
 -0.23242943D-04 -0.72438100D-05  0.13990136D-05  0.13530650D-05  0.42169126D-06
 -0.35436527D-04 -0.34272667D-04 -0.10681293D-04 -0.17564352D-02 -0.16987477D-02
 -0.52942545D-03
MO    2     MO 0.0        OCC NO =    2.0000000  ORB. ENERGY =  -18.880402
  0.42246199D+01  0.40858685D+01  0.12733867D+01 -0.67654653D-02  0.90493563D-02
  0.68296842D-02 -0.91063510D-03 -0.57263179D-03 -0.90714496D-04  0.40054348D-02
  0.25187249D-02  0.39900834D-03 -0.54806460D-02 -0.34463773D-02 -0.54596406D-03
 -0.88723424D-03 -0.85809433D-03 -0.26743052D-03 -0.11531796D-04  0.15424709D-04
  0.11641258D-04  0.57178002D-04  0.35955062D-04  0.56958859D-05  0.24927992D-04
  0.15675390D-04  0.24832452D-05 -0.67307978D-05 -0.42325063D-05 -0.67050010D-06
 -0.44021566D-02 -0.42575742D-02 -0.13268999D-02  0.12911798D-04 -0.17270573D-04
 -0.13034359D-04 -0.25167053D-04 -0.15825718D-04 -0.25070597D-05  0.41303459D-05
  0.25972723D-05  0.41145157D-06  0.28584522D-04  0.17974714D-04  0.28474968D-05
  0.11472966D-04  0.11096154D-04  0.34581864D-05 -0.20612390D-05  0.27570737D-05
  0.20808046D-05 -0.10422847D-03 -0.65541656D-04 -0.10382899D-04 -0.20912076D-04
 -0.13150075D-04 -0.20831927D-05 -0.53938295D-04 -0.33917847D-04 -0.53731569D-05
 -0.62021421D-04 -0.59984419D-04 -0.18694523D-04 -0.33701507D-04  0.45078489D-04
  0.34021408D-04  0.14993009D-03  0.94280066D-04  0.14935547D-04 -0.33049437D-03
 -0.20782373D-03 -0.32922770D-04  0.39019820D-04  0.24536710D-04  0.38870271D-05
  0.16402167D-02  0.15863461D-02  0.49439480D-03  0.74049603D-03 -0.99047326D-03
 -0.74752494D-03 -0.11965579D-02 -0.75242774D-03 -0.11919720D-03  0.37699048D-02
  0.23706173D-02  0.37554561D-03 -0.27204482D-03 -0.17106908D-03 -0.27100217D-04
  0.38006450D-05  0.36758184D-05  0.11455920D-05  0.39644241D-05 -0.53027375D-05
 -0.40020551D-05 -0.52807844D-04 -0.33206989D-04 -0.52605450D-05  0.22525425D-04
  0.14164592D-04  0.22439093D-05  0.46559851D-04  0.29278084D-04  0.46381403D-05
  0.40612235D-04  0.39278385D-04  0.12241357D-04  0.87206867D-04  0.84342685D-04
  0.26285931D-04  0.10493391D-03  0.10148751D-03  0.31629225D-04 -0.64692116D-05
 -0.62567398D-05 -0.19499525D-05 -0.65884154D-05 -0.63720285D-05 -0.19858830D-05
 -0.17818911D-02 -0.17233675D-02 -0.53709837D-03 -0.80663921D-07 -0.78014633D-07
 -0.24313754D-07
MO    3     MO 0.0        OCC NO =    2.0000000  ORB. ENERGY =  -18.877347
  0.44206048D-02  0.42754165D-02  0.13324606D-02 -0.37220582D-05  0.49785535D-05
  0.37573886D-05  0.22123440D-04  0.13911813D-04  0.22038649D-05 -0.10817218D-04
 -0.68021570D-05 -0.10775759D-05 -0.31267937D-05 -0.19662118D-05 -0.31148098D-06
 -0.41037466D-02 -0.39689650D-02 -0.12369530D-02 -0.55638353D-04  0.74420791D-04
  0.56166481D-04 -0.73417067D-03 -0.46166622D-03 -0.73135685D-04 -0.12922450D-03
 -0.81259836D-04 -0.12872923D-04  0.57417651D-03  0.36105760D-03  0.57197590D-04
  0.42246685D+01  0.40859154D+01  0.12734014D+01 -0.68956918D-02  0.92235449D-02
  0.69611469D-02  0.68965727D-02  0.43367500D-02  0.68701405D-03 -0.18594338D-02
 -0.11692619D-02 -0.18523073D-03 -0.66273689D-02 -0.41674674D-02 -0.66019685D-03
 -0.43591647D-04 -0.42159943D-04 -0.13139413D-04 -0.17965677D-04  0.24030545D-04
  0.18136211D-04 -0.14496690D-03 -0.91159079D-04 -0.14441130D-04  0.45385636D-04
  0.28539706D-04  0.45211689D-05  0.14810899D-03  0.93134905D-04  0.14754134D-04
 -0.55732473D-04 -0.53902021D-04 -0.16798906D-04 -0.21727392D-04  0.29062142D-04
  0.21933632D-04 -0.23940897D-03 -0.15054678D-03 -0.23849140D-04  0.25028215D-03
  0.15738414D-03  0.24932291D-04  0.28339430D-03  0.17820594D-03  0.28230815D-04
 -0.18118929D-04 -0.17523839D-04 -0.54614153D-05 -0.33375894D-05  0.44642954D-05
  0.33692704D-05 -0.35838170D-04 -0.22536003D-04 -0.35700815D-05 -0.26078800D-04
 -0.16399050D-04 -0.25978850D-05  0.11595297D-07  0.72914342D-08  0.11550857D-08
  0.18419079D-02  0.17814132D-02  0.55518868D-03  0.12605976D-02 -0.16861511D-02
 -0.12725634D-02  0.44987989D-02  0.28289655D-02  0.44815566D-03 -0.11795315D-02
 -0.74172106D-03 -0.11750108D-03 -0.43062767D-02 -0.27079024D-02 -0.42897723D-03
  0.75725343D-05  0.73238255D-05  0.22825165D-05  0.49797261D-05  0.48161743D-05
  0.15009912D-05  0.58321265D-05  0.56405788D-05  0.17579221D-05 -0.94788327D-04
 -0.91675143D-04 -0.28571138D-04  0.72594717D-06  0.70210449D-06  0.21881530D-06
 -0.51028532D-05 -0.49352574D-05 -0.15381042D-05 -0.33451932D-04 -0.32353253D-04
 -0.10083096D-04
MO    4     MO 0.0        OCC NO =    2.0000000  ORB. ENERGY =  -14.118401
  0.25479207D-04  0.24642379D-04  0.76799533D-05  0.44036692D-05 -0.58902633D-05
 -0.44454696D-05  0.90588331D-04  0.56964373D-04  0.90241138D-05 -0.37298490D-04
 -0.23454291D-04 -0.37155538D-05  0.82686782D-05  0.51995667D-05  0.82369873D-06
  0.22256321D-04  0.21525345D-04  0.67085097D-05  0.29226800D-05 -0.39093206D-05
 -0.29504225D-05 -0.78709182D-04 -0.49494446D-04 -0.78407518D-05 -0.37838233D-04
 -0.23793696D-04 -0.37693213D-05  0.47344557D-04  0.29771528D-04  0.47163102D-05
 -0.10974892D-03 -0.10614438D-03 -0.33080567D-04 -0.15972488D-04  0.21364493D-04
  0.16124101D-04  0.69155639D-05  0.43486921D-05  0.68890590D-06  0.25801741D-03
  0.16224827D-03  0.25702852D-04  0.10511127D-03  0.66096785D-04  0.10470841D-04
  0.34289999D+01  0.33163795D+01  0.10335706D+01 -0.67900704D-02  0.90822678D-02
  0.68545230D-02 -0.50321477D-02 -0.31643495D-02 -0.50128613D-03 -0.42682656D-02
 -0.26840000D-02 -0.42519069D-03  0.74901973D-03  0.47100371D-03  0.74614900D-04
  0.15840078D-02  0.15319834D-02  0.47745231D-03  0.92563426D-03 -0.12381106D-02
 -0.93442054D-03  0.13693462D-02  0.86108166D-03  0.13640980D-03 -0.41881209D-02
 -0.26336028D-02 -0.41720693D-03 -0.57298856D-03 -0.36031059D-03 -0.57079250D-04
 -0.13698974D-04 -0.13249052D-04 -0.41291507D-05 -0.44986804D-04  0.60173485D-04
  0.45413827D-04 -0.12344702D-03 -0.77626796D-04 -0.12297389D-04  0.96430009D-04
  0.60637777D-04  0.96060427D-05 -0.39024607D-04 -0.24539720D-04 -0.38875039D-05
 -0.75867770D-04 -0.73376004D-04 -0.22868096D-04 -0.67187164D-04  0.89868259D-04
  0.67824916D-04 -0.21976318D-04 -0.13819299D-04 -0.21892091D-05  0.34426186D-03
  0.21648110D-03  0.34294243D-04  0.29056374D-04  0.18271428D-04  0.28945012D-05
  0.11118105D-03  0.10752948D-03  0.33512241D-04 -0.30868930D-04 -0.29855085D-04
 -0.93045259D-05  0.70531120D-05  0.68214628D-05  0.21259520D-05 -0.21499996D-02
 -0.20793860D-02 -0.64805379D-03 -0.21535752D-02 -0.20828441D-02 -0.64913154D-03
 -0.19322554D-04 -0.18687933D-04 -0.58242123D-05 -0.10521200D-05 -0.10175647D-05
 -0.31713046D-06
MO    5     MO 0.0        OCC NO =    2.0000000  ORB. ENERGY =  -10.102976
  0.13070896D-04  0.12641602D-04  0.39398351D-05 -0.95191471D-05  0.12732628D-04
  0.96095045D-05  0.16450145D-03  0.10344293D-03  0.16387097D-04  0.11916528D-03
  0.74934325D-04  0.11870856D-04 -0.44441702D-04 -0.27946135D-04 -0.44271373D-05
  0.26257472D-02  0.25395083D-02  0.79145382D-03  0.12882526D-02 -0.17231419D-02
 -0.13004809D-02  0.26195246D-03  0.16472274D-03  0.26094849D-04 -0.59223223D-02
 -0.37241152D-02 -0.58996241D-03 -0.26163920D-02 -0.16452575D-02 -0.26063643D-03
  0.23375342D-02  0.22607613D-02  0.70458056D-03  0.18038956D-02 -0.24128561D-02
 -0.18210185D-02 -0.37734603D-02 -0.23728531D-02 -0.37589979D-03  0.11008871D-02
  0.69226732D-03  0.10966677D-03  0.36550658D-02  0.22984035D-02  0.36410572D-03
 -0.16149142D-03 -0.15618747D-03 -0.48676811D-04 -0.11664374D-03  0.15602043D-03
  0.11775094D-03 -0.70378948D-04 -0.44256171D-04 -0.70109211D-05 -0.14622557D-03
 -0.91950565D-04 -0.14566514D-04  0.99215709D-04  0.62389500D-04  0.98835450D-05
 -0.29300895D-01 -0.28338550D-01 -0.88318882D-02  0.11117677D-02 -0.14870791D-02
 -0.11223208D-02  0.32185213D-02  0.20238926D-02  0.32061859D-03  0.27749903D-02
  0.17449884D-02  0.27643547D-03 -0.15031742D-02 -0.94523628D-03 -0.14974131D-03
 -0.26697462D-02 -0.25820623D-02 -0.80471604D-03 -0.12716378D-04  0.17009183D-04
  0.12837084D-04  0.13563848D-03  0.85293118D-04  0.13511863D-04  0.26485883D-03
  0.16655034D-03  0.26384372D-04 -0.10879632D-03 -0.68414048D-04 -0.10837935D-04
  0.26839111D+01  0.25957620D+01  0.80898564D+00 -0.60386812D-02  0.80772239D-02
  0.60960014D-02 -0.44211590D-03 -0.27801434D-03 -0.44042142D-04  0.16731305D-03
  0.10521093D-03  0.16667179D-04  0.44859796D-03  0.28209043D-03  0.44687864D-04
  0.41270463D-05  0.39914995D-05  0.12439760D-05 -0.56204908D-04 -0.54358940D-04
 -0.16941307D-04 -0.40431016D-04 -0.39103119D-04 -0.12186734D-04 -0.16608265D-03
 -0.16062790D-03 -0.50060702D-04 -0.82652970D-04 -0.79938354D-04 -0.24913293D-04
 -0.20404590D-04 -0.19734432D-04 -0.61503603D-05 -0.46922738D-03 -0.45381630D-03
 -0.14143472D-03
MO    6     MO 0.0        OCC NO =    2.0000000  ORB. ENERGY =  -10.058233
 -0.69446133D-03 -0.67165276D-03 -0.20932483D-03 -0.33308630D-03  0.44552984D-03
  0.33624802D-03 -0.67582299D-03 -0.42497563D-03 -0.67323280D-04  0.15445216D-02
  0.97123663D-03  0.15386020D-03 -0.64753124D-04 -0.40718502D-04 -0.64504949D-05
 -0.52213615D-04 -0.50498735D-04 -0.15738250D-04 -0.58023320D-04  0.77610878D-04
  0.58574087D-04 -0.13800631D-04 -0.86782070D-05 -0.13747738D-05  0.17543318D-03
  0.11031709D-03  0.17476081D-04 -0.19330882D-07 -0.12155777D-07 -0.19256793D-08
 -0.71130603D-04 -0.68794422D-04 -0.21440217D-04 -0.23676010D-04  0.31668577D-04
  0.23900747D-04  0.25618930D-03  0.16109871D-03  0.25520741D-04  0.50305434D-03
  0.31633407D-03  0.50112631D-04 -0.62955798D-04 -0.39588295D-04 -0.62714510D-05
  0.26118350D-02  0.25260531D-02  0.78726040D-03  0.11378855D-02 -0.15220138D-02
 -0.11486865D-02 -0.18727102D-02 -0.11776104D-02 -0.18655328D-03  0.53477156D-02
  0.33627871D-02  0.53272197D-03  0.86992824D-03  0.54703422D-03  0.86659412D-04
  0.26216518D+01  0.25355475D+01  0.79021941D+00 -0.69372185D-02  0.92790901D-02
  0.70030677D-02  0.92519431D-03  0.58178701D-03  0.92164837D-04 -0.41346767D-03
 -0.25999957D-03 -0.41188300D-04 -0.13856675D-04 -0.87134491D-05 -0.13803567D-05
 -0.56171984D+00 -0.54327097D+00 -0.16931383D+00  0.25042199D-02 -0.33495964D-02
 -0.25279904D-02  0.39597750D-02  0.24900128D-02  0.39445986D-03 -0.84573180D-03
 -0.53181885D-03 -0.84249041D-04  0.22203827D-02  0.13962362D-02  0.22118728D-03
  0.32051042D-01  0.30998372D-01  0.96608386D-02  0.10282051D-02 -0.13753074D-02
 -0.10379650D-02 -0.32101882D-02 -0.20186525D-02 -0.31978847D-03 -0.31481644D-02
 -0.19796502D-02 -0.31360986D-03  0.15138913D-02  0.95197550D-03  0.15080891D-03
 -0.24990711D-02 -0.24169928D-02 -0.75327107D-03  0.54467919D-03  0.52679000D-03
  0.16417743D-03  0.54590890D-03  0.52797932D-03  0.16454809D-03 -0.15998744D-03
 -0.15473289D-03 -0.48223483D-04 -0.12428448D-03 -0.12020254D-03 -0.37461882D-04
  0.45614117D-04  0.44115988D-04  0.13749027D-04 -0.44000423D-04 -0.42555293D-04
 -0.13262626D-04
MO    7     MO 0.0        OCC NO =    2.0000000  ORB. ENERGY =  -10.055661
  0.27545595D-02  0.26640900D-02  0.83028049D-03  0.12353066D-02 -0.16523224D-02
 -0.12470323D-02  0.20335195D-02  0.12787316D-02  0.20257257D-03 -0.62684260D-02
 -0.39417545D-02 -0.62444014D-03 -0.53476291D-03 -0.33627327D-03 -0.53271335D-04
 -0.60699792D-04 -0.58706196D-04 -0.18296157D-04 -0.28309476D-04  0.37866211D-04
  0.28578195D-04  0.31339520D-04  0.19707131D-04  0.31219407D-05  0.12397557D-03
  0.77959164D-04  0.12350041D-04  0.36684317D-04  0.23068083D-04  0.36543719D-05
 -0.58771164D-04 -0.56840911D-04 -0.17714829D-04 -0.14482345D-04  0.19371306D-04
  0.14619814D-04  0.16191989D-03  0.10181957D-03  0.16129931D-04  0.94354456D-04
  0.59332614D-04  0.93992829D-05  0.92332813D-05  0.58061350D-05  0.91978934D-06
  0.58400274D-03  0.56482202D-03  0.17603035D-03  0.19854700D-03 -0.26557266D-03
 -0.20043165D-03 -0.43321617D-03 -0.27241795D-03 -0.43155580D-04  0.10177427D-02
  0.63998394D-03  0.10138421D-03  0.75747424D-04  0.47632013D-04  0.75457111D-05
  0.56564272D+00  0.54706501D+00  0.17049627D+00 -0.38666801D-03  0.51719971D-03
  0.39033833D-03 -0.39001305D-02 -0.24525067D-02 -0.38851827D-03  0.63999787D-03
  0.40244783D-03  0.63754498D-04 -0.24127444D-02 -0.15171984D-02 -0.24034972D-03
  0.26228820D+01  0.25367373D+01  0.79059021D+00 -0.64591143D-02  0.86395872D-02
  0.65204253D-02  0.80934045D-03  0.50893500D-03  0.80623854D-04  0.88783977D-03
  0.55829748D-03  0.88443700D-04  0.95600311D-03  0.60116041D-03  0.95233909D-04
  0.99204134D-02  0.95945920D-02  0.29902152D-02  0.22048019D-03 -0.29491007D-03
 -0.22257303D-03 -0.76001149D-03 -0.47791562D-03 -0.75709864D-04 -0.55843472D-03
 -0.35115874D-03 -0.55629443D-04  0.23850992D-03  0.14998144D-03  0.23759579D-04
 -0.50640631D-03 -0.48977414D-03 -0.15264121D-03 -0.24295830D-02 -0.23497869D-02
 -0.73232593D-03 -0.24771311D-02 -0.23957733D-02 -0.74665791D-03 -0.14584109D-04
 -0.14105116D-04 -0.43959485D-05 -0.75606476D-04 -0.73123292D-04 -0.22789336D-04
 -0.36015481D-03 -0.34832606D-03 -0.10855802D-03 -0.85503407D-05 -0.82695173D-05
 -0.25772473D-05
MO    8     MO 0.0        OCC NO =    2.0000000  ORB. ENERGY =   -1.020305
 -0.39963574D-01 -0.38651029D-01 -0.12045837D-01 -0.78425993D-02  0.10490110D-01
  0.79170427D-02 -0.62256904D-02 -0.39148812D-02 -0.62018295D-03  0.74244925D-02
  0.46687201D-02  0.73960370D-03 -0.89265013D-02 -0.56132236D-02 -0.88922892D-03
 -0.69416216D+00 -0.67136342D+00 -0.20923465D+00 -0.13816650D+00  0.18480886D+00
  0.13947800D+00 -0.13168740D+00 -0.82808573D-01 -0.13118269D-01  0.89973063D-01
  0.56577477D-01  0.89628228D-02  0.15316384D+00  0.96313532D-01  0.15257682D-01
 -0.54905662D+00 -0.53102366D+00 -0.16549688D+00 -0.10527967D+00  0.14082007D+00
  0.10627900D+00  0.15424975D+00  0.96996379D-01  0.15365856D-01 -0.55252853D-01
 -0.34744477D-01 -0.55041089D-02 -0.15514417D+00 -0.97558817D-01 -0.15454956D-01
 -0.30107636D-01 -0.29118795D-01 -0.90750564D-02 -0.51606165D-02  0.69027414D-02
  0.52096019D-02 -0.51034399D-02 -0.32091799D-02 -0.50838802D-03 -0.11276800D-01
 -0.70911546D-02 -0.11233580D-02  0.13335573D-02  0.83857664D-03  0.13284463D-03
 -0.59462133D-01 -0.57509187D-01 -0.17923102D-01 -0.87928575D-02  0.11761157D-01
  0.88763209D-02 -0.14777825D-01 -0.92926928D-02 -0.14721187D-02 -0.14696388D-01
 -0.92414833D-02 -0.14640062D-02  0.62095633D-02  0.39047401D-02  0.61857643D-03
 -0.19459032D-01 -0.18819929D-01 -0.58653497D-02 -0.27710772D-02  0.37065396D-02
  0.27973807D-02 -0.32392917D-02 -0.20369536D-02 -0.32268767D-03 -0.33985249D-02
 -0.21370836D-02 -0.33854995D-03 -0.15584406D-02 -0.97998926D-03 -0.15524676D-03
 -0.34707786D+00 -0.33567860D+00 -0.10461636D+00 -0.49275149D-01  0.65909493D-01
  0.49742877D-01 -0.53905156D-01 -0.33897009D-01 -0.53698557D-02 -0.46044937D-01
 -0.28954292D-01 -0.45868464D-02  0.25665481D-01  0.16139143D-01  0.25567114D-02
  0.23625948D-02  0.22849988D-02  0.71213432D-03  0.49134698D-03  0.47520941D-03
  0.14810202D-03  0.76746353D-03  0.74225731D-03  0.23132918D-03  0.20517391D-02
  0.19843527D-02  0.61843607D-03  0.11809423D-02  0.11421560D-02  0.35596014D-03
  0.19305021D-02  0.18670976D-02  0.58189276D-03  0.27532054D-01  0.26627804D-01
  0.82987234D-02
MO    9     MO 0.0        OCC NO =    2.0000000  ORB. ENERGY =   -0.942414
 -0.75701012D+00 -0.73214723D+00 -0.22817831D+00 -0.15211695D+00  0.20346872D+00
  0.15356087D+00 -0.34508194D-01 -0.21699678D-01 -0.34375936D-02  0.13335237D+00
  0.83855546D-01  0.13284127D-01 -0.16980768D+00 -0.10677962D+00 -0.16915687D-01
 -0.35526141D+00 -0.34359336D+00 -0.10708304D+00 -0.72680236D-01  0.97215688D-01
  0.73370130D-01 -0.53007543D-01 -0.33332566D-01 -0.52804384D-02  0.12605186D-01
  0.79264794D-02  0.12556875D-02  0.57739478D-01  0.36308133D-01  0.57518183D-02
  0.45971750D+00  0.44461875D+00  0.13856824D+00  0.90748716D-01 -0.12138374D+00
 -0.91610118D-01 -0.11210747D+00 -0.70496186D-01 -0.11167780D-01  0.23716638D-01
  0.14913658D-01  0.23625740D-02  0.10724042D+00  0.67435652D-01  0.10682940D-01
 -0.30374705D-03 -0.29377093D-03 -0.91555566D-04 -0.13540020D-03  0.18110871D-03
  0.13668544D-03  0.38323285D-02  0.24098710D-02  0.38176406D-03 -0.86463748D-03
 -0.54370725D-03 -0.86132363D-04 -0.11185907D-02 -0.70339986D-03 -0.11143035D-03
 -0.36255536D-01 -0.35064776D-01 -0.10928159D-01 -0.50094436D-02  0.67005355D-02
  0.50569941D-02  0.18069909D-01  0.11362844D-01  0.18000654D-02 -0.70300500D-02
 -0.44206841D-02 -0.70031063D-03  0.17471371D-02  0.10986467D-02  0.17404410D-03
 -0.19103709D+00 -0.18476276D+00 -0.57582482D-01 -0.29472622D-01  0.39422013D-01
  0.29752382D-01  0.20951144D-01  0.13174642D-01  0.20870846D-02 -0.67773113D-01
 -0.42617552D-01 -0.67513363D-02 -0.52443026D-02 -0.32977582D-02 -0.52242031D-03
  0.81981699D-01  0.79289130D-01  0.24710958D-01  0.11167664D-01 -0.14937653D-01
 -0.11273670D-01  0.66543363D-01  0.41844253D-01  0.66288326D-02 -0.49398352D-01
 -0.31063009D-01 -0.49209026D-02 -0.72181417D-01 -0.45389612D-01 -0.71904771D-02
  0.22030764D-02  0.21307196D-02  0.66405222D-03  0.61807337D-02  0.59777366D-02
  0.18629994D-02  0.64256528D-02  0.62146117D-02  0.19368230D-02 -0.10606614D-02
 -0.10258256D-02 -0.31970502D-03 -0.25059246D-03 -0.24236212D-03 -0.75533687D-04
  0.34287161D-01  0.33161049D-01  0.10334851D-01  0.15277472D-01  0.14775705D-01
  0.46049420D-02
MO   10     MO 0.0        OCC NO =    2.0000000  ORB. ENERGY =   -0.940900
  0.53824325D+00  0.52056544D+00  0.16223751D+00  0.10819243D+00 -0.14471611D+00
 -0.10921941D+00  0.22100963D-01  0.13897678D-01  0.22016258D-02 -0.97037568D-01
 -0.61019826D-01 -0.96665657D-02  0.11966033D+00  0.75245629D-01  0.11920172D-01
 -0.57611205D+00 -0.55719049D+00 -0.17365194D+00 -0.11789126D+00  0.15768908D+00
  0.11901030D+00 -0.10462208D+00 -0.65789172D-01 -0.10422110D-01  0.19030456D-01
  0.11966861D-01  0.18957519D-02  0.97024382D-01  0.61011535D-01  0.96652522D-02
  0.56659163D+00  0.54798276D+00  0.17078229D+00  0.11201285D+00 -0.14982624D+00
 -0.11307610D+00 -0.14045896D+00 -0.88324362D-01 -0.13992063D-01  0.23593841D-01
  0.14836441D-01  0.23503415D-02  0.13003910D+00  0.81772075D-01  0.12954070D-01
  0.54412813D-01  0.52625703D-01  0.16401133D-01  0.96257878D-02 -0.12875269D-01
 -0.97171574D-02  0.89466201D-02  0.56258748D-02  0.89123309D-03  0.16795670D-01
  0.10561568D-01  0.16731298D-02 -0.30571742D-02 -0.19224332D-02 -0.30454571D-03
  0.56804390D-01  0.54938733D-01  0.17122003D-01  0.85584641D-02 -0.11447637D-01
 -0.86397025D-02 -0.17175822D-02 -0.10800618D-02 -0.17109993D-03  0.48956380D-03
  0.30785085D-03  0.48768747D-04 -0.10401782D-01 -0.65409200D-02 -0.10361916D-02
  0.14309963D+00  0.13839973D+00  0.43133152D-01  0.22060551D-01 -0.29507769D-01
 -0.22269953D-01 -0.12700809D-01 -0.79866096D-02 -0.12652131D-02  0.47102649D-01
  0.29619410D-01  0.46922121D-02  0.36576298D-02  0.23000158D-02  0.36436114D-03
  0.99101922D-01  0.95847064D-01  0.29871343D-01  0.13501633D-01 -0.18059525D-01
 -0.13629793D-01  0.69490468D-01  0.43697471D-01  0.69224136D-02 -0.79816654D-01
 -0.50190854D-01 -0.79510745D-02 -0.94332105D-01 -0.59318559D-01 -0.93970563D-02
 -0.13720512D-02 -0.13269882D-02 -0.41356425D-03 -0.46946272D-02 -0.45404390D-02
 -0.14150565D-02 -0.52211998D-02 -0.50497171D-02 -0.15737763D-02 -0.35342767D-02
 -0.34181986D-02 -0.10653032D-02 -0.23421996D-02 -0.22652735D-02 -0.70598680D-03
 -0.23815298D-01 -0.23033120D-01 -0.71784173D-02  0.25779724D-01  0.24933026D-01
  0.77705352D-02
MO   11     MO 0.0        OCC NO =    2.0000000  ORB. ENERGY =   -0.837702
  0.12758200D+00  0.12339176D+00  0.38455821D-01  0.26750536D-01 -0.35781002D-01
 -0.27004456D-01 -0.60123868D-02 -0.37807502D-02 -0.59893435D-03 -0.45665256D-02
 -0.28715538D-02 -0.45490237D-03  0.31002237D-01  0.19495039D-01  0.30883417D-02
  0.18703122D-01  0.18088846D-01  0.56375031D-02  0.39956775D-02 -0.53445414D-02
 -0.40336051D-02  0.16439475D-01  0.10337583D-01  0.16376469D-02  0.13920231D-01
  0.87534151D-02  0.13866880D-02 -0.10774884D-01 -0.67755361D-02 -0.10733588D-02
  0.14560119D+00  0.14081914D+00  0.43887174D-01  0.29831775D-01 -0.39902410D-01
 -0.30114944D-01 -0.20455642D-01 -0.12863057D-01 -0.20377243D-02  0.29518717D-01
  0.18562161D-01  0.29405582D-02  0.25537357D-01  0.16058575D-01  0.25439481D-02
 -0.66152856D+00 -0.63980163D+00 -0.19939822D+00 -0.12336723D+00  0.16501364D+00
  0.12453825D+00 -0.12250298D+00 -0.77033161D-01 -0.12203347D-01 -0.14491900D+00
 -0.91128958D-01 -0.14436358D-01  0.15663947D-01  0.98499103D-02  0.15603913D-02
 -0.30858874D+00 -0.29845359D+00 -0.93014948D-01 -0.47813549D-01  0.63954484D-01
  0.48267403D-01 -0.30570024D-01 -0.19223252D-01 -0.30452860D-02  0.65871391D-01
  0.41421698D-01  0.65618929D-02  0.10378853D-01  0.65265013D-02  0.10339075D-02
 -0.68194729D-01 -0.65954973D-01 -0.20555284D-01 -0.10526531D-01  0.14080085D-01
  0.10626450D-01 -0.32951776D-01 -0.20720961D-01 -0.32825484D-02  0.26499338D-01
  0.16663495D-01  0.26397775D-02 -0.12010871D-01 -0.75527582D-02 -0.11964838D-02
 -0.24987488D-01 -0.24166810D-01 -0.75317392D-02 -0.40731444D-02  0.54481596D-02
  0.41118073D-02  0.46082743D-01  0.28978065D-01  0.45906124D-02  0.31350430D-01
  0.19713992D-01  0.31230275D-02 -0.31982454D-01 -0.20111425D-01 -0.31859877D-02
  0.15545173D-01  0.15034614D-01  0.46856326D-02  0.39771051D-02  0.38464829D-02
  0.11987807D-02  0.43741252D-02  0.42304634D-02  0.13184507D-02  0.35143529D-01
  0.33989291D-01  0.10592977D-01  0.35924040D-01  0.34744168D-01  0.10828239D-01
 -0.72224579D-02 -0.69852469D-02 -0.21769963D-02 -0.28148639D-02 -0.27224138D-02
 -0.84845746D-03
MO   12     MO 0.0        OCC NO =    2.0000000  ORB. ENERGY =   -0.680580
  0.26277020D+00  0.25413990D+00  0.79204306D-01  0.59272128D-01 -0.79281259D-01
 -0.59834749D-01 -0.62713575D-01 -0.39435979D-01 -0.62473216D-02  0.96245759D-01
  0.60521916D-01  0.95876883D-02  0.97708015D-01  0.61441422D-01  0.97333535D-02
  0.89890415D-01  0.86938096D-01  0.27094807D-01  0.20678894D-01 -0.27659691D-01
 -0.20875182D-01  0.83432591D-01  0.52464652D-01  0.83112824D-02  0.12056864D+00
  0.75816795D-01  0.12010654D-01 -0.20294549D-01 -0.12761757D-01 -0.20216767D-02
  0.10523287D+00  0.10177665D+00  0.31719337D-01  0.22918138D-01 -0.30654861D-01
 -0.23135681D-01  0.22945060D-01  0.14428469D-01  0.22857120D-02  0.17833274D-01
  0.11214041D-01  0.17764926D-02  0.16325946D-03  0.10266193D-03  0.16263374D-04
  0.33210698D+00  0.32119941D+00  0.10010383D+00  0.67126899D-01 -0.89787651D-01
 -0.67764079D-01  0.15074548D+00  0.94792800D-01  0.15016772D-01 -0.32741278D-01
 -0.20588594D-01 -0.32615792D-02 -0.20378082D-01 -0.12814285D-01 -0.20299980D-02
 -0.37105152D+00 -0.35886487D+00 -0.11184251D+00 -0.64756167D-01  0.86616605D-01
  0.65370844D-01  0.57053500D-01  0.35876772D-01  0.56834835D-02 -0.90771382D-01
 -0.57079481D-01 -0.90423488D-02  0.12792724D-01  0.80444079D-02  0.12743694D-02
 -0.34193096D+00 -0.33070074D+00 -0.10306498D+00 -0.58875821D-01  0.78751167D-01
  0.59434680D-01 -0.66136169D-01 -0.41588198D-01 -0.65882692D-02  0.53179546D-01
  0.33440726D-01  0.52975728D-02 -0.22966097D-01 -0.14441698D-01 -0.22878076D-02
 -0.15141752D+00 -0.14644444D+00 -0.45640334D-01 -0.27081737D-01  0.36224012D-01
  0.27338802D-01  0.91956345D-01  0.57824617D-01  0.91603909D-02  0.43642555D-01
  0.27443610D-01  0.43475289D-02 -0.43880906D-01 -0.27593491D-01 -0.43712726D-02
  0.32949757D-01  0.31867570D-01  0.99317297D-02  0.26551820D-01  0.25679764D-01
  0.80032607D-02  0.27502863D-01  0.26599572D-01  0.82899248D-02 -0.29571030D-01
 -0.28599813D-01 -0.89133125D-02 -0.33181977D-01 -0.32092163D-01 -0.10001726D-01
 -0.24432275D-01 -0.23629832D-01 -0.73643866D-02 -0.18157667D-01 -0.17561305D-01
 -0.54730917D-02
MO   13     MO 0.0        OCC NO =    2.0000000  ORB. ENERGY =   -0.598827
  0.17093607D+00  0.16532193D+00  0.51523623D-01  0.40280086D-01 -0.53877869D-01
 -0.40662431D-01 -0.33554781D-01 -0.21100147D-01 -0.33426177D-02  0.19769339D+00
  0.12431491D+00  0.19693570D-01  0.15859514D+00  0.99728879D-01  0.15798730D-01