 opt threonine pbe0
GAUSSIAN             49 MOL ORBITALS    147 PRIMITIVES       17 NUCLEI
  O    1    (CENTRE  1)   2.61239433 -2.93166016 -0.46470526  CHARGE =  8.0
  O    2    (CENTRE  2)  -2.83516294 -2.67522499 -0.61570320  CHARGE =  8.0
  O    3    (CENTRE  3)  -3.48800220  0.85200666  1.90492154  CHARGE =  8.0
  N    4    (CENTRE  4)  -0.04844497  3.68971258 -1.17318909  CHARGE =  7.0
  C    5    (CENTRE  5)   2.53298318 -0.20011831 -0.43506197  CHARGE =  6.0
  C    6    (CENTRE  6)  -0.07278414  0.86865430 -1.39801525  CHARGE =  6.0
  C    7    (CENTRE  7)   3.08066861  0.65922443  2.29604054  CHARGE =  6.0
  C    8    (CENTRE  8)  -2.29440827 -0.20707768  0.19092229  CHARGE =  6.0
  H    9    (CENTRE  9)  -0.35016570  0.19030519 -3.36077664  CHARGE =  1.0
  H   10    (CENTRE 10)   3.99790632  0.61655843 -1.69869510  CHARGE =  1.0
  H   11    (CENTRE 11)   2.81800811  2.70427410  2.43047715  CHARGE =  1.0
  H   12    (CENTRE 12)   5.01772084  0.16932371  2.82279336  CHARGE =  1.0
  H   13    (CENTRE 13)   1.78103346 -0.26798426  3.60789883  CHARGE =  1.0
  H   14    (CENTRE 14)  -1.82473065  4.29680388 -1.80944461  CHARGE =  1.0
  H   15    (CENTRE 15)   1.18024922  4.31741700 -2.59764979  CHARGE =  1.0
  H   16    (CENTRE 16)   2.16183391 -3.33620966 -2.27815162  CHARGE =  1.0
  H   17    (CENTRE 17)  -4.23533063 -3.20354508  0.57645377  CHARGE =  1.0
CENTRE ASSIGNMENTS    1  1  1  1  1  1  1  1  1  1  1  1  1  1  1  2  2  2  2  2
CENTRE ASSIGNMENTS    2  2  2  2  2  2  2  2  2  2  3  3  3  3  3  3  3  3  3  3
CENTRE ASSIGNMENTS    3  3  3  3  3  4  4  4  4  4  4  4  4  4  4  4  4  4  4  4
CENTRE ASSIGNMENTS    5  5  5  5  5  5  5  5  5  5  5  5  5  5  5  6  6  6  6  6
CENTRE ASSIGNMENTS    6  6  6  6  6  6  6  6  6  6  7  7  7  7  7  7  7  7  7  7
CENTRE ASSIGNMENTS    7  7  7  7  7  8  8  8  8  8  8  8  8  8  8  8  8  8  8  8
CENTRE ASSIGNMENTS    9  9  9 10 10 10 11 11 11 12 12 12 13 13 13 14 14 14 15 15
CENTRE ASSIGNMENTS   15 16 16 16 17 17 17
TYPE ASSIGNMENTS      1  1  1  1  1  1  2  2  2  3  3  3  4  4  4  1  1  1  1  1
TYPE ASSIGNMENTS      1  2  2  2  3  3  3  4  4  4  1  1  1  1  1  1  2  2  2  3
TYPE ASSIGNMENTS      3  3  4  4  4  1  1  1  1  1  1  2  2  2  3  3  3  4  4  4
TYPE ASSIGNMENTS      1  1  1  1  1  1  2  2  2  3  3  3  4  4  4  1  1  1  1  1
TYPE ASSIGNMENTS      1  2  2  2  3  3  3  4  4  4  1  1  1  1  1  1  2  2  2  3
TYPE ASSIGNMENTS      3  3  4  4  4  1  1  1  1  1  1  2  2  2  3  3  3  4  4  4
TYPE ASSIGNMENTS      1  1  1  1  1  1  1  1  1  1  1  1  1  1  1  1  1  1  1  1
TYPE ASSIGNMENTS      1  1  1  1  1  1  1
EXPONENTS  0.1307093D+03 0.2380887D+02 0.6443608D+01 0.5033151D+01 0.1169596D+01
EXPONENTS  0.3803890D+00 0.5033151D+01 0.1169596D+01 0.3803890D+00 0.5033151D+01
EXPONENTS  0.1169596D+01 0.3803890D+00 0.5033151D+01 0.1169596D+01 0.3803890D+00
EXPONENTS  0.1307093D+03 0.2380887D+02 0.6443608D+01 0.5033151D+01 0.1169596D+01
EXPONENTS  0.3803890D+00 0.5033151D+01 0.1169596D+01 0.3803890D+00 0.5033151D+01
EXPONENTS  0.1169596D+01 0.3803890D+00 0.5033151D+01 0.1169596D+01 0.3803890D+00
EXPONENTS  0.1307093D+03 0.2380887D+02 0.6443608D+01 0.5033151D+01 0.1169596D+01
EXPONENTS  0.3803890D+00 0.5033151D+01 0.1169596D+01 0.3803890D+00 0.5033151D+01
EXPONENTS  0.1169596D+01 0.3803890D+00 0.5033151D+01 0.1169596D+01 0.3803890D+00
EXPONENTS  0.9910617D+02 0.1805231D+02 0.4885660D+01 0.3780456D+01 0.8784966D+00
EXPONENTS  0.2857144D+00 0.3780456D+01 0.8784966D+00 0.2857144D+00 0.3780456D+01
EXPONENTS  0.8784966D+00 0.2857144D+00 0.3780456D+01 0.8784966D+00 0.2857144D+00
EXPONENTS  0.7161684D+02 0.1304510D+02 0.3530512D+01 0.2941249D+01 0.6834831D+00
EXPONENTS  0.2222899D+00 0.2941249D+01 0.6834831D+00 0.2222899D+00 0.2941249D+01
EXPONENTS  0.6834831D+00 0.2222899D+00 0.2941249D+01 0.6834831D+00 0.2222899D+00
EXPONENTS  0.7161684D+02 0.1304510D+02 0.3530512D+01 0.2941249D+01 0.6834831D+00
EXPONENTS  0.2222899D+00 0.2941249D+01 0.6834831D+00 0.2222899D+00 0.2941249D+01
EXPONENTS  0.6834831D+00 0.2222899D+00 0.2941249D+01 0.6834831D+00 0.2222899D+00
EXPONENTS  0.7161684D+02 0.1304510D+02 0.3530512D+01 0.2941249D+01 0.6834831D+00
EXPONENTS  0.2222899D+00 0.2941249D+01 0.6834831D+00 0.2222899D+00 0.2941249D+01
EXPONENTS  0.6834831D+00 0.2222899D+00 0.2941249D+01 0.6834831D+00 0.2222899D+00
EXPONENTS  0.7161684D+02 0.1304510D+02 0.3530512D+01 0.2941249D+01 0.6834831D+00
EXPONENTS  0.2222899D+00 0.2941249D+01 0.6834831D+00 0.2222899D+00 0.2941249D+01
EXPONENTS  0.6834831D+00 0.2222899D+00 0.2941249D+01 0.6834831D+00 0.2222899D+00
EXPONENTS  0.3425251D+01 0.6239137D+00 0.1688554D+00 0.3425251D+01 0.6239137D+00
EXPONENTS  0.1688554D+00 0.3425251D+01 0.6239137D+00 0.1688554D+00 0.3425251D+01
EXPONENTS  0.6239137D+00 0.1688554D+00 0.3425251D+01 0.6239137D+00 0.1688554D+00
EXPONENTS  0.3425251D+01 0.6239137D+00 0.1688554D+00 0.3425251D+01 0.6239137D+00
EXPONENTS  0.1688554D+00 0.3425251D+01 0.6239137D+00 0.1688554D+00 0.3425251D+01
EXPONENTS  0.6239137D+00 0.1688554D+00
MO    1     MO 0.0        OCC NO =    2.0000005  ORB. ENERGY =    0.000000
  0.68259137D-01  0.66017266D-01  0.20574698D-01  0.28963485D-04 -0.38741001D-04
 -0.29238412D-04  0.10188269D-02  0.64066569D-03  0.10149221D-03  0.10404381D-03
  0.65425538D-04  0.10364504D-04 -0.62527222D-03 -0.39318795D-03 -0.62287577D-04
 -0.84540111D-01 -0.81763515D-01 -0.25482116D-01 -0.13530898D-03  0.18098669D-03
  0.13659335D-03  0.47100662D-03  0.29618160D-03  0.46920142D-04  0.62211219D-03
  0.39120084D-03  0.61972786D-04 -0.13207648D-03 -0.83053232D-04 -0.13157027D-04
 -0.15277157D+01 -0.14775401D+01 -0.46048472D+00  0.72566977D-05 -0.97064194D-05
 -0.73255795D-05 -0.45381528D-02 -0.28537122D-02 -0.45207596D-03  0.34365886D-02
  0.21610191D-02  0.34234173D-03  0.63631237D-02  0.40013029D-02  0.63387361D-03
  0.31217950D+01  0.30192642D+01  0.94097278D+00 -0.25518069D-02  0.34132479D-02
  0.25760291D-02 -0.52444779D-02 -0.32978685D-02 -0.52243777D-03 -0.69180928D-02
 -0.43502824D-02 -0.68915782D-03 -0.20861140D-01 -0.13118045D-01 -0.20781187D-02
 -0.43213333D-02 -0.41794054D-02 -0.13025381D-02  0.31611304D-04 -0.42282673D-04
 -0.31911364D-04 -0.31660307D-03 -0.19908850D-03 -0.31538964D-04  0.62875943D-04
  0.39538080D-04  0.62634961D-05 -0.12174082D-04 -0.76553893D-05 -0.12127423D-05
  0.14103953D+00  0.13640729D+00  0.42512195D-01  0.86240491D-04 -0.11535362D-03
 -0.87059100D-04 -0.13842807D-02 -0.87047283D-03 -0.13789752D-03 -0.33748016D-02
 -0.21221658D-02 -0.33618672D-03 -0.76073404D-03 -0.47836998D-03 -0.75781841D-04
  0.99049184D-01  0.95796058D-01  0.29855447D-01 -0.31283738D-03  0.41844526D-03
  0.31580688D-03  0.12618039D-03  0.79345617D-04  0.12569679D-04  0.15872589D-03
  0.99811101D-04  0.15811755D-04  0.14278039D-03  0.89784142D-04  0.14223317D-04
 -0.56976021D+00 -0.55104727D+00 -0.17173736D+00  0.88476207D-03 -0.11834407D-02
 -0.89316038D-03 -0.26481826D-03 -0.16652483D-03 -0.26380331D-04  0.82129222D-03
  0.51645059D-03  0.81814450D-04  0.59629240D-03  0.37496467D-03  0.59400703D-04
 -0.47957416D-03 -0.46382324D-03 -0.14455345D-03 -0.15605199D-05 -0.15092669D-05
 -0.47037258D-06 -0.45634129D-03 -0.44135343D-03 -0.13755059D-03 -0.78443841D-04
 -0.75867468D-04 -0.23644576D-04 -0.60744438D-04 -0.58749376D-04 -0.18309614D-04
 -0.15495840D-02 -0.14986901D-02 -0.46707626D-03 -0.14963693D-02 -0.14472233D-02
 -0.45103628D-03 -0.90926496D-04 -0.87940148D-04 -0.27407103D-04  0.20644856D-03
  0.19966806D-03  0.62227814D-04
MO    2     MO 0.0        OCC NO =    2.0000005  ORB. ENERGY =    0.000000
  0.97232439D-01  0.94038982D-01  0.29307843D-01  0.43836683D-04 -0.58635105D-04
 -0.44252788D-04  0.96167302D-03  0.60472580D-03  0.95798726D-04  0.43186339D-03
  0.27156729D-03  0.43020821D-04 -0.72667513D-03 -0.45695282D-03 -0.72389005D-04
  0.12821308D+00  0.12400211D+00  0.38646042D-01  0.23085416D-03 -0.30878609D-03
 -0.23304547D-03 -0.12566256D-02 -0.79019987D-03 -0.12518094D-03 -0.18166500D-02
 -0.11423582D-02 -0.18096874D-03  0.12121500D-03  0.76223245D-04  0.12075043D-04
  0.34494884D+01  0.33361950D+01  0.10397462D+01 -0.20832340D-03  0.27864937D-03
  0.21030084D-03  0.92567533D-02  0.58208949D-02  0.92212754D-03 -0.87463763D-02
 -0.54999561D-02 -0.87128546D-03 -0.13358444D-01 -0.84001479D-02 -0.13307246D-02
  0.14308635D+01  0.13838689D+01  0.43129148D+00 -0.12887559D-02  0.17238151D-02
  0.13009890D-02 -0.25418975D-02 -0.15984134D-02 -0.25321553D-03 -0.28341355D-02
 -0.17821805D-02 -0.28232733D-03 -0.90302831D-02 -0.56784843D-02 -0.89956732D-03
  0.15517417D-01  0.15007771D-01  0.46772666D-02 -0.30891344D-04  0.41319668D-04
  0.31184570D-04 -0.31273525D-03 -0.19665632D-03 -0.31153665D-04  0.14613454D-03
  0.91893322D-04  0.14557446D-04 -0.97648252D-04 -0.61403841D-04 -0.97274001D-05
  0.69600320D-01  0.67314399D-01  0.20978958D-01  0.67421539D-03 -0.90181755D-03
 -0.68061516D-03  0.18902046D-02  0.11886114D-02  0.18829601D-03 -0.48560166D-04
 -0.30535935D-04 -0.48374052D-05 -0.19911030D-02 -0.12520590D-02 -0.19834718D-03
  0.51463477D-01  0.49773234D-01  0.15512143D-01 -0.18878831D-03  0.25251962D-03
  0.19058032D-03  0.68021264D-04  0.42773596D-04  0.67760562D-05 -0.21309839D-05
 -0.13400198D-05 -0.21228166D-06  0.53623101D-04  0.33719645D-04  0.53417583D-05
  0.10949167D+01  0.10589558D+01  0.33003026D+00 -0.16998091D-02  0.22736319D-02
  0.17159439D-02  0.85258653D-03  0.53612929D-03  0.84931887D-04 -0.16832375D-02
 -0.10584649D-02 -0.16767863D-03 -0.17598614D-02 -0.11066481D-02 -0.17531164D-03
 -0.89496486D-04 -0.86557105D-04 -0.26976069D-04 -0.14877538D-03 -0.14388907D-03
 -0.44843938D-04 -0.22673354D-03 -0.21928681D-03 -0.68342120D-04 -0.38604506D-04
 -0.37336598D-04 -0.11636187D-04 -0.14694271D-03 -0.14211659D-03 -0.44291534D-04
 -0.74966836D-03 -0.72504660D-03 -0.22596536D-03 -0.79669427D-03 -0.77052801D-03
 -0.24013992D-03 -0.74337569D-04 -0.71896060D-04 -0.22406862D-04 -0.43719585D-03
 -0.42283680D-03 -0.13177976D-03
MO    3     MO 0.0        OCC NO =    2.0000003  ORB. ENERGY =    0.000000
  0.37315644D+01  0.36090066D+01  0.11247697D+01 -0.28681030D-03  0.38363195D-03
  0.28953275D-03 -0.17983918D-02 -0.11308770D-02 -0.17914992D-03  0.10765366D-01
  0.67695509D-02  0.10724106D-02 -0.13996766D-01 -0.88015423D-02 -0.13943122D-02
  0.19847612D+01  0.19195746D+01  0.59824757D+00 -0.22531321D-03  0.30137463D-03
  0.22745193D-03 -0.41900064D-02 -0.26347885D-02 -0.41739476D-03  0.56358457D-02
  0.35439710D-02  0.56142455D-03  0.77143202D-02  0.48509715D-02  0.76847539D-03
 -0.26464379D+00 -0.25595196D+00 -0.79769045D-01  0.88167901D-05 -0.11793169D-04
 -0.89004806D-05 -0.67942241D-03 -0.42723904D-03 -0.67681842D-04  0.70416508D-03
  0.44279790D-03  0.70146626D-04  0.10890671D-02  0.68483464D-03  0.10848931D-03
 -0.60885784D-01 -0.58886079D-01 -0.18352219D-01  0.59010482D-04 -0.78931287D-04
 -0.59570620D-04  0.82366214D-04  0.51794086D-04  0.82050534D-05 -0.10327368D-03
 -0.64941261D-04 -0.10287787D-04  0.20730088D-03  0.13035636D-03  0.20650637D-04
  0.17828135D+00  0.17242596D+00  0.53737641D-01  0.12142143D-03 -0.16241097D-03
 -0.12257398D-03 -0.28911605D-03 -0.18180393D-03 -0.28800797D-04  0.27983523D-02
  0.17596790D-02  0.27876272D-03 -0.80435885D-03 -0.50580243D-03 -0.80127603D-04
  0.38539313D-01  0.37273546D-01  0.11616536D-01 -0.13363291D-04  0.17874481D-04
  0.13490138D-04 -0.18160682D-03 -0.11419924D-03 -0.18091078D-04 -0.20288551D-03
 -0.12757985D-03 -0.20210792D-04 -0.17817039D-03 -0.11203832D-03 -0.17748753D-04
  0.13882413D-01  0.13426465D-01  0.41844427D-02 -0.75146445D-04  0.10051444D-03
  0.75859748D-04 -0.43051713D-04 -0.27072073D-04 -0.42886711D-05 -0.10025557D-03
 -0.63043395D-04 -0.99871330D-05 -0.21545941D-03 -0.13548666D-03 -0.21463363D-04
  0.15080000D+00  0.14584720D+00  0.45454201D-01 -0.11157525D-03  0.14924091D-03
  0.11263434D-03 -0.53096311D-03 -0.33388385D-03 -0.52892812D-04  0.17750490D-02
  0.11161984D-02  0.17682458D-03  0.14686836D-02  0.92354764D-03  0.14630546D-03
 -0.42723552D-04 -0.41320359D-04 -0.12877751D-04 -0.22938328D-03 -0.22184952D-03
 -0.69140806D-04 -0.50401437D-04 -0.48746075D-04 -0.15192022D-04 -0.55750770D-04
 -0.53919717D-04 -0.16804421D-04 -0.12372585D-03 -0.11966226D-03 -0.37293499D-04
 -0.42117500D-04 -0.40734212D-04 -0.12695075D-04 -0.28922271D-05 -0.27972361D-05
 -0.87177631D-06 -0.13202060D-02 -0.12768457D-02 -0.39793704D-03 -0.66847130D-03
 -0.64651634D-03 -0.20149090D-03
MO    4     MO 0.0        OCC NO =    2.0000003  ORB. ENERGY =    0.000000
 -0.20092271D+01 -0.19432370D+01 -0.60562209D+00  0.14430287D-03 -0.19301675D-03
 -0.14567262D-03  0.14251398D-02  0.89616616D-03  0.14196778D-03 -0.57554605D-02
 -0.36191880D-02 -0.57334018D-03  0.72546921D-02  0.45619451D-02  0.72268874D-03
  0.36987092D+01  0.35772305D+01  0.11148665D+01 -0.44767872D-03  0.59880645D-03
  0.45192816D-03 -0.80381988D-02 -0.50546351D-02 -0.80073913D-03  0.10361795D-01
  0.65157745D-02  0.10322082D-02  0.14135589D-01  0.88888379D-02  0.14081413D-02
 -0.35139995D+00 -0.33985873D+00 -0.10591912D+00 -0.51706403D-04  0.69161491D-04
  0.52197209D-04 -0.10979134D-02 -0.69039741D-03 -0.10937055D-03  0.92317597D-03
  0.58051782D-03  0.91963776D-04  0.14458422D-02  0.90918439D-03  0.14403008D-03
  0.67383438D-01  0.65170327D-01  0.20310744D-01 -0.58138685D-04  0.77765188D-04
  0.58690547D-04 -0.10254286D-04 -0.64481705D-05 -0.10214985D-05  0.15471577D-03
  0.97289429D-04  0.15412280D-04 -0.34068677D-03 -0.21423298D-03 -0.33938104D-04
 -0.92634609D-01 -0.89592161D-01 -0.27921963D-01 -0.74007134D-04  0.98990520D-04
  0.74709622D-04  0.14639015D-03  0.92054053D-04  0.14582909D-04 -0.14860569D-02
 -0.93447243D-03 -0.14803613D-03  0.44126621D-03  0.27748004D-03  0.43957500D-04
  0.98178453D-02  0.94953925D-02  0.29592991D-02  0.23982204D-04 -0.32078135D-04
 -0.24209847D-04  0.51132301D-03  0.32153363D-03  0.50936329D-04  0.12921716D-03
  0.81255220D-04  0.12872192D-04 -0.45886201D-03 -0.28854475D-03 -0.45710336D-04
 -0.93074764D-02 -0.90017860D-02 -0.28054635D-02  0.46674275D-04 -0.62430614D-04
 -0.47117315D-04  0.62799731D-04  0.39490156D-04  0.62559041D-05  0.45053587D-04
  0.28330905D-04  0.44880913D-05  0.12092812D-03  0.76042847D-04  0.12046465D-04
  0.28673128D+00  0.27731401D+00  0.86426664D-01 -0.24702252D-03  0.33041257D-03
  0.24936730D-03 -0.68566831D-03 -0.43116663D-03 -0.68304038D-04  0.31275931D-02
  0.19667145D-02  0.31156061D-03  0.24193873D-02  0.15213756D-02  0.24101146D-03
 -0.14381338D-03 -0.13909004D-03 -0.43348290D-04  0.93965790D-04  0.90879621D-04
  0.28323208D-04  0.22727254D-04  0.21980811D-04  0.68504587D-05  0.32415547D-04
  0.31350906D-04  0.97707080D-05  0.56679437D-04  0.54817884D-04  0.17084340D-04
  0.29307301D-05  0.28344746D-05  0.88338192D-06 -0.46046282D-04 -0.44533959D-04
 -0.13879290D-04  0.57363839D-03  0.55479808D-03  0.17290633D-03 -0.12407812D-02
 -0.12000295D-02 -0.37399678D-03
MO    5     MO 0.0        OCC NO =    2.0000002  ORB. ENERGY =    0.000000
  0.16043684D-01  0.15516753D-01  0.48358942D-02 -0.79259755D-05  0.10601633D-04
  0.80012102D-05 -0.55886660D-03 -0.35143032D-03 -0.55672467D-04 -0.84552544D-04
 -0.53168909D-04 -0.84228485D-05  0.70623883D-04  0.44410193D-04  0.70353207D-05
  0.63660528D+00  0.61569691D+00  0.19188583D+00 -0.12619323D-02  0.16879364D-02
  0.12739108D-02 -0.10703897D-03 -0.67308976D-04 -0.10662873D-04  0.51104178D-02
  0.32135679D-02  0.50908314D-03  0.30379818D-02  0.19103645D-02  0.30263383D-03
  0.18859601D+01  0.18240185D+01  0.56846691D+00 -0.76126525D-03  0.10182538D-02
  0.76849131D-03  0.44335694D-02  0.27879474D-02  0.44165771D-03 -0.36772574D-02
 -0.23123581D-02 -0.36631637D-03 -0.61740516D-02 -0.38824093D-02 -0.61503886D-03
 -0.11424531D+00 -0.11049309D+00 -0.34435869D-01  0.37453234D-03 -0.50096726D-03
 -0.37808746D-03  0.20079856D-03  0.12626752D-03  0.20002897D-04  0.97035234D-03
  0.61018359D-03  0.96663332D-04  0.59739560D-03  0.37565838D-03  0.59510600D-04
 -0.59595151D-02 -0.57637836D-02 -0.17963196D-02  0.15645074D-03 -0.20926551D-03
 -0.15793580D-03  0.46588855D-03  0.29296322D-03  0.46410297D-04 -0.33137863D-03
 -0.20837977D-03 -0.33010857D-04  0.28252085D-03  0.17765669D-03  0.28143805D-04
  0.42346674D+00  0.40955859D+00  0.12764152D+00 -0.21022610D-02  0.28119440D-02
  0.21222161D-02 -0.35476408D-02 -0.22308517D-02 -0.35340439D-03 -0.11563144D-02
 -0.72712155D-03 -0.11518827D-03  0.26848494D-02  0.16883054D-02  0.26745594D-03
 -0.22080521D-01 -0.21355318D-01 -0.66555199D-02  0.94178049D-04 -0.12597075D-03
 -0.95072004D-04 -0.45005345D-04 -0.28300569D-04 -0.44832856D-05  0.77878766D-04
  0.48972258D-04  0.77580285D-05 -0.58344972D-04 -0.36688884D-04 -0.58121356D-05
 -0.23303842D+01 -0.22538462D+01 -0.70242541D+00  0.57861651D-02 -0.77394633D-02
 -0.58410884D-02  0.27595652D-02  0.17352886D-02  0.27489887D-03 -0.88561514D-03
 -0.55689856D-03 -0.88222089D-04 -0.30772658D-02 -0.19350673D-02 -0.30654717D-03
 -0.36189473D-03 -0.35000883D-03 -0.10908246D-03  0.13003091D-03  0.12576023D-03
  0.39193972D-04  0.25899741D-04  0.25049102D-04  0.78067108D-05  0.36978850D-04
  0.35764334D-04  0.11146181D-04  0.15913209D-03  0.15390563D-03  0.47965662D-04
  0.10013720D-03  0.96848337D-04  0.30183396D-04  0.14582664D-03  0.14103718D-03
  0.43955128D-04 -0.12628170D-04 -0.12213416D-04 -0.38063884D-05  0.17312270D-03
  0.16743674D-03  0.52182719D-04
MO    6     MO 0.0        OCC NO =    2.0000001  ORB. ENERGY =    0.000000
 -0.25170224D+00 -0.24343545D+00 -0.75868197D-01  0.83687830D-03 -0.11193923D-02
 -0.84482209D-03  0.14235077D-02  0.89513985D-03  0.14180519D-03 -0.29714486D-02
 -0.18685266D-02 -0.29600601D-03 -0.14933603D-03 -0.93906500D-04 -0.14876367D-04
 -0.73113184D-01 -0.70711889D-01 -0.22037807D-01  0.10586310D-03 -0.14160045D-03
 -0.10686797D-03  0.98866968D-05  0.62170202D-05  0.98488046D-06 -0.44254893D-04
 -0.27828664D-04 -0.44085279D-05 -0.28187865D-03 -0.17725286D-03 -0.28079830D-04
 -0.16604560D+00 -0.16059207D+00 -0.50049535D-01  0.11806160D-03 -0.15791693D-03
 -0.11918226D-03  0.30611600D-03  0.19249396D-03  0.30494277D-04  0.85500227D-03
  0.53764837D-03  0.85172535D-04  0.15044816D-03  0.94605842D-04  0.14987155D-04
 -0.17042341D+00 -0.16482611D+00 -0.51369098D-01  0.73171744D-03 -0.97873118D-03
 -0.73866303D-03  0.50669083D-04  0.31862079D-04  0.50474887D-05  0.22338023D-02
  0.14046749D-02  0.22252410D-03  0.61927291D-03  0.38941543D-03  0.61689946D-04
  0.17597670D+01  0.17019700D+01  0.53042972D+00 -0.35169619D-02  0.47042206D-02
  0.35503455D-02  0.12815845D-02  0.80589473D-03  0.12766727D-03 -0.10520244D-02
 -0.66154118D-03 -0.10479924D-03 -0.84113340D-03 -0.52892725D-03 -0.83790963D-04
  0.13887376D+01  0.13431266D+01  0.41859389D+00 -0.29867091D-02  0.39949647D-02
  0.30150594D-02 -0.19397077D-02 -0.12197403D-02 -0.19322735D-03  0.99008936D-03
  0.62259476D-03  0.98629470D-04 -0.73694380D-03 -0.46341004D-03 -0.73411936D-04
  0.14430724D+01  0.13956768D+01  0.43497150D+00 -0.32793490D-02  0.43863942D-02
  0.33104771D-02  0.51396480D-03  0.32319486D-03  0.51199496D-04  0.60912413D-03
  0.38303360D-03  0.60678958D-04  0.20643310D-02  0.12981067D-02  0.20564191D-03
  0.17897155D+00  0.17309349D+00  0.53945681D-01  0.67265796D-05 -0.89973436D-05
 -0.67904294D-05 -0.16761125D-02 -0.10539845D-02 -0.16696885D-03 -0.57132171D-03
 -0.35926242D-03 -0.56913204D-04  0.12734047D-02  0.80075104D-03  0.12685242D-03
 -0.11612646D-02 -0.11231246D-02 -0.35002887D-03 -0.15191847D-02 -0.14692893D-02
 -0.45791330D-03 -0.11920920D-02 -0.11529395D-02 -0.35932087D-03 -0.11545810D-02
 -0.11166605D-02 -0.34801429D-03 -0.12050288D-02 -0.11654514D-02 -0.36322031D-03
 -0.11800733D-04 -0.11413156D-04 -0.35569821D-05 -0.82806101D-05 -0.80086456D-05
 -0.24959450D-05 -0.21016023D-03 -0.20325783D-03 -0.63346586D-04 -0.32671130D-04
 -0.31598094D-04 -0.98477458D-05
MO    7     MO 0.0        OCC NO =    2.0000001  ORB. ENERGY =    0.000000
  0.24667983D-01  0.23857799D-01  0.74354338D-02 -0.18925834D-03  0.25314831D-03
  0.19105481D-03 -0.15340862D-02 -0.96467458D-03 -0.15282066D-03  0.74093153D-03
  0.46591763D-03  0.73809180D-04  0.39129128D-03  0.24605446D-03  0.38979160D-04
 -0.11852098D+00 -0.11462833D+00 -0.35724645D-01  0.19647697D-03 -0.26280383D-03
 -0.19834197D-03  0.47755761D-04  0.30030104D-04  0.47572730D-05 -0.32366468D-03
 -0.20352903D-03 -0.32242419D-04 -0.33374040D-03 -0.20986492D-03 -0.33246129D-04
 -0.24539694D+00 -0.23733724D+00 -0.73967650D-01  0.15663599D-03 -0.20951329D-03
 -0.15812281D-03  0.28737318D-03  0.18070797D-03  0.28627178D-04  0.12902437D-02
  0.81133988D-03  0.12852987D-03  0.23709190D-03  0.14908975D-03  0.23618321D-04
 -0.62610048D-01 -0.60553713D-01 -0.18871947D-01  0.80128225D-03 -0.10717797D-02
 -0.80888816D-03  0.97324197D-04  0.61200067D-04  0.96951188D-05  0.32346095D-02
  0.20340092D-02  0.32222124D-03  0.49030599D-03  0.30831756D-03  0.48842682D-04
 -0.43690572D+00 -0.42255619D+00 -0.13169231D+00  0.13076377D-02 -0.17490710D-02
 -0.13200500D-02  0.28657916D-02  0.18020867D-02  0.28548080D-03 -0.50887360D-03
 -0.31999338D-03 -0.50692327D-04  0.25754899D-02  0.16195372D-02  0.25656190D-03
  0.21108746D+01  0.20415460D+01  0.63626073D+00 -0.54626842D-02  0.73067814D-02
  0.55145369D-02  0.57298788D-03  0.36031016D-03  0.57079183D-04 -0.13739403D-03
 -0.86397056D-04 -0.13686745D-04  0.23537370D-03  0.14800930D-03  0.23447160D-04
 -0.15528303D+01 -0.15018299D+01 -0.46805477D+00  0.40455775D-02 -0.54112867D-02
 -0.40839788D-02  0.95988810D-04  0.60360339D-04  0.95620919D-05 -0.99408563D-04
 -0.62510772D-04 -0.99027566D-05 -0.22382740D-03 -0.14074868D-03 -0.22296955D-04
  0.31228047D+00  0.30202407D+00  0.94127711D-01 -0.11386426D-03  0.15230265D-03
  0.11494508D-03 -0.24876880D-02 -0.15643250D-02 -0.24781536D-03 -0.84432120D-03
 -0.53093183D-03 -0.84108522D-04  0.19873392D-02  0.12496922D-02  0.19797224D-03
 -0.17640241D-02 -0.17060873D-02 -0.53171288D-03  0.40050613D-03  0.38735209D-03
  0.12072073D-03  0.12232467D-02  0.11830709D-02  0.36871153D-03  0.12287922D-02
  0.11884344D-02  0.37038308D-03  0.12373298D-02  0.11966915D-02  0.37295646D-03
 -0.12030851D-03 -0.11635716D-03 -0.36263444D-04 -0.12218629D-03 -0.11817326D-03
 -0.36829442D-04  0.28616726D-04  0.27676851D-04  0.86256656D-05 -0.42954962D-04
 -0.41544169D-04 -0.12947503D-04
MO    8     MO 0.0        OCC NO =    2.0000000  ORB. ENERGY =    0.000000
  0.19518899D+00  0.18877830D+00  0.58833949D-01 -0.97820067D-03  0.13084224D-02
  0.98748592D-03 -0.23497524D-02 -0.14775873D-02 -0.23407466D-03  0.37339618D-02
  0.23480154D-02  0.37196508D-03  0.39172149D-03  0.24632499D-03  0.39022016D-04
 -0.34106919D-01 -0.32986728D-01 -0.10280522D-01  0.74408162D-04 -0.99526928D-04
 -0.75114457D-04  0.28830713D-04  0.18129526D-04  0.28720215D-05 -0.21103513D-03
 -0.13270455D-03 -0.21022630D-04 -0.77158964D-04 -0.48519627D-04 -0.76863241D-05
 -0.76778548D-01 -0.74256869D-01 -0.23142622D-01  0.39818704D-04 -0.53260733D-04
 -0.40196670D-04  0.92434095D-04  0.58125039D-04  0.92079828D-05  0.43671136D-03
  0.27461582D-03  0.43503760D-04  0.71264359D-04  0.44812941D-04  0.70991228D-05
 -0.14278353D+00 -0.13809401D+00 -0.43037872D-01  0.51404052D-03 -0.68757073D-03
 -0.51891988D-03  0.21329337D-03  0.13412460D-03  0.21247589D-04  0.13662048D-02
  0.85910627D-03  0.13609687D-03  0.47613893D-03  0.29940894D-03  0.47431406D-04
 -0.19656944D+01 -0.19011340D+01 -0.59250044D+00  0.57496608D-02 -0.76906359D-02
 -0.58042376D-02  0.49665609D-03  0.31231068D-03  0.49475258D-04 -0.11153763D-02
 -0.70137854D-03 -0.11111014D-03 -0.17448381D-02 -0.10972010D-02 -0.17381507D-03
  0.77334713D+00  0.74794767D+00  0.23310262D+00 -0.26233600D-02  0.35089560D-02
  0.26482614D-02  0.22471416D-02  0.14130629D-02  0.22385291D-03 -0.85197839D-03
 -0.53574688D-03 -0.84871306D-04  0.81974357D-03  0.51547675D-03  0.81660178D-04
  0.16367486D+01  0.15829920D+01  0.49334947D+00 -0.51549362D-02  0.68951436D-02
  0.52038677D-02 -0.61611978D-03 -0.38743265D-03 -0.61375841D-04 -0.91454520D-03
 -0.57509056D-03 -0.91104007D-04 -0.28454304D-02 -0.17892830D-02 -0.28345249D-03
  0.10740473D+00  0.10387718D+00  0.32373979D-01 -0.36001451D-04  0.48154849D-04
  0.36343183D-04 -0.92237003D-03 -0.58001102D-03 -0.91883491D-04 -0.41322881D-03
 -0.25984936D-03 -0.41164505D-04  0.69183600D-03  0.43504504D-03  0.68918444D-04
 -0.68733262D-03 -0.66475818D-03 -0.20717609D-03  0.17051282D-02  0.16491258D-02
  0.51396048D-03 -0.13132521D-02 -0.12701202D-02 -0.39584100D-03 -0.13614383D-02
 -0.13167238D-02 -0.41036530D-03 -0.12911908D-02 -0.12487836D-02 -0.38919129D-03
  0.53732213D-04  0.51967457D-04  0.16195987D-04  0.34473327D-04  0.33341101D-04
  0.10390965D-04  0.19481588D-03  0.18841744D-03  0.58721486D-04 -0.10122313D-04
 -0.97898609D-05 -0.30510720D-05
MO    9     MO 0.0        OCC NO =    1.9995856  ORB. ENERGY =    0.000000
  0.10449835D+00  0.10106625D+00  0.31497936D-01  0.24911167D-01 -0.33320698D-01
 -0.25147628D-01  0.43740739D-01  0.27505351D-01  0.43573096D-02  0.22767988D-01
  0.14317122D-01  0.22680727D-02 -0.40418281D-01 -0.25416100D-01 -0.40263372D-02
  0.86501376D+00  0.83660365D+00  0.26073281D+00  0.20934161D+00 -0.28001131D+00
 -0.21132871D+00 -0.15387509D+00 -0.96760783D-01 -0.15328534D-01  0.19280915D+00
  0.12124357D+00  0.19207018D-01  0.26902131D+00  0.16916782D+00  0.26799024D-01
 -0.43273543D+00 -0.41852287D+00 -0.13043530D+00 -0.10197473D+00  0.13639944D+00
  0.10294269D+00 -0.29788838D-01 -0.18732021D-01 -0.29674668D-02  0.10814395D+00
  0.68003818D-01  0.10772947D-01  0.81891995D-01  0.51495884D-01  0.81578132D-02
  0.71399193D-03  0.69054191D-03  0.21521175D-03  0.36461892D-03 -0.48770726D-03
 -0.36807995D-03 -0.69880986D-03 -0.43943039D-03 -0.69613157D-04 -0.16563551D-02
 -0.10415605D-02 -0.16500069D-03 -0.15387652D-02 -0.96761685D-03 -0.15328677D-03
  0.10375899D-01  0.10035118D-01  0.31275079D-02  0.88274486D-03 -0.11807426D-02
 -0.89112403D-03  0.24976075D-02  0.15705626D-02  0.24880350D-03  0.85329582D-03
  0.53657531D-03  0.85002544D-04 -0.28792483D-02 -0.18105486D-02 -0.28682132D-03
  0.10765467D-01  0.10411891D-01  0.32449315D-02  0.50223807D-03 -0.67178399D-03
 -0.50700540D-03 -0.82906238D-03 -0.52133667D-03 -0.82588487D-04  0.44500269D-02
  0.27982963D-02  0.44329715D-03  0.29318316D-02  0.18436144D-02  0.29205949D-03
  0.17381827D-02  0.16810946D-02  0.52392377D-03  0.90648020D-04 -0.12124905D-03
 -0.91508466D-04 -0.54390349D-03 -0.34202111D-03 -0.54181890D-04  0.11961494D-02
  0.75217084D-03  0.11915650D-03 -0.70598961D-03 -0.44394521D-03 -0.70328380D-04
  0.89942482D-03  0.86988452D-03  0.27110501D-03  0.37135409D-03 -0.49671610D-03
 -0.37487905D-03 -0.24788843D-01 -0.15587890D-01 -0.24693836D-02  0.25067037D-01
  0.15762825D-01  0.24970964D-02  0.38594984D-01  0.24269562D-01  0.38447063D-02
 -0.36922692D-02 -0.35710020D-02 -0.11129253D-02 -0.12641454D-02 -0.12226264D-02
 -0.38103924D-03  0.13910376D-03  0.13453510D-03  0.41928714D-04 -0.26008565D-03
 -0.25154352D-03 -0.78395128D-04 -0.13846778D-03 -0.13392001D-03 -0.41737017D-04
  0.30788732D-03  0.29777522D-03  0.92803528D-04 -0.71902139D-04 -0.69540619D-04
 -0.21672773D-04 -0.25386228D-02 -0.24552454D-02 -0.76519276D-03  0.10543725D-02
  0.10197432D-02  0.31780940D-03
MO   10     MO 0.0        OCC NO =    1.9995560  ORB. ENERGY =    0.000000
  0.89221750D+00  0.86291392D+00  0.26893258D+00  0.21524017D+00 -0.28790112D+00
 -0.21728327D+00  0.51408314D-01  0.32326927D-01  0.51211284D-02  0.18692397D+00
  0.11754281D+00  0.18620756D-01 -0.26674771D+00 -0.16773812D+00 -0.26572536D-01
  0.74164007D-01  0.71728198D-01  0.22354546D-01  0.16732978D-01 -0.22381710D-01
 -0.16891811D-01 -0.95257977D-02 -0.59900772D-02 -0.94892887D-03  0.24589479D-02
  0.15462524D-02  0.24495236D-03  0.99684442D-02  0.62684252D-02  0.99302387D-03
  0.39335868D+00  0.38043939D+00  0.11856634D+00  0.93860692D-01 -0.12554626D+00
 -0.94751634D-01  0.50887119D-01  0.31999186D-01  0.50692087D-02 -0.34522551D-01
 -0.21708707D-01 -0.34390239D-02 -0.62684079D-01 -0.39417431D-01 -0.62443834D-02
  0.94314198D-02  0.91216586D-02  0.28428226D-02  0.19404723D-02 -0.25955385D-02
 -0.19588916D-02  0.11374967D-03  0.71528846D-04  0.11331371D-04 -0.10744714D-01
 -0.67565645D-02 -0.10703533D-02 -0.75229917D-02 -0.47306591D-02 -0.74941588D-03
  0.73486353D-01  0.71072801D-01  0.22150288D-01  0.64035526D-02 -0.85652689D-02
 -0.64643362D-02 -0.62143104D-02 -0.39077252D-02 -0.61904932D-03  0.72719703D-02
  0.45728101D-02  0.72440995D-03 -0.21834421D-01 -0.13730070D-01 -0.21750737D-02
  0.19388698D-01  0.18751904D-01  0.58441496D-02  0.34672949D-02 -0.46377871D-02
 -0.35002071D-02 -0.17452510D-04 -0.10974607D-04 -0.17385621D-05  0.64855339D-02
  0.40782777D-02  0.64606771D-03 -0.42490024D-02 -0.26718867D-02 -0.42327175D-03
  0.14662807D-01  0.14181228D-01  0.44196695D-02  0.45369208D-03 -0.60684981D-03
 -0.45799860D-03 -0.15450066D-02 -0.97154163D-03 -0.15390852D-03  0.84924321D-02
  0.53402692D-02  0.84598837D-03 -0.88066433D-02 -0.55378536D-02 -0.87728906D-03
  0.62088796D-01  0.60049581D-01  0.18714831D-01  0.39502169D-02 -0.52837342D-02
 -0.39877131D-02 -0.48722677D-03 -0.30638127D-03 -0.48535941D-04 -0.37828408D-02
 -0.23787518D-02 -0.37683425D-03 -0.29681863D-02 -0.18664752D-02 -0.29568103D-03
  0.58531249D-04  0.56608876D-04  0.17642514D-04 -0.86189413D-02 -0.83358648D-02
 -0.25979250D-02  0.18016140D-03  0.17424426D-03  0.54304326D-04 -0.17922353D-02
 -0.17333719D-02 -0.54021632D-03 -0.43409222D-02 -0.41983510D-02 -0.13084426D-02
 -0.19355944D-02 -0.18720227D-02 -0.58342770D-03 -0.72247372D-03 -0.69874513D-03
 -0.21776834D-03 -0.11895065D-02 -0.11504389D-02 -0.35854154D-03 -0.24091937D-02
 -0.23300673D-02 -0.72618019D-03
MO   11     MO 0.0        OCC NO =    1.9995475  ORB. ENERGY =    0.000000
 -0.38401137D+00 -0.37139908D+00 -0.11574887D+00 -0.92669668D-01  0.12395317D+00
  0.93549305D-01  0.19030010D-01  0.11966581D-01  0.18957075D-02 -0.76354430D-01
 -0.48013714D-01 -0.76061790D-02  0.10442168D+00  0.65663156D-01  0.10402147D-01
  0.43724936D+00  0.42288854D+00  0.13179589D+00  0.10268272D+00 -0.13734643D+00