 opt threonine b3lyp
GAUSSIAN             32 MOL ORBITALS    147 PRIMITIVES       17 NUCLEI
  O    1    (CENTRE  1)   2.50212956 -3.04651229 -0.27748096  CHARGE =  8.0
  O    2    (CENTRE  2)  -2.99118178 -2.71525916 -0.45611499  CHARGE =  8.0
  O    3    (CENTRE  3)  -3.32863697  1.01196877  1.96433579  CHARGE =  8.0
  N    4    (CENTRE  4)  -0.03155362  3.68889093 -1.43519483  CHARGE =  7.0
  C    5    (CENTRE  5)   2.56317887 -0.28767736 -0.57128254  CHARGE =  6.0
  C    6    (CENTRE  6)  -0.09070014  0.81288443 -1.49916322  CHARGE =  6.0
  C    7    (CENTRE  7)   3.36389539  0.82648870  2.03671935  CHARGE =  6.0
  C    8    (CENTRE  8)  -2.29772891 -0.21294126  0.21755869  CHARGE =  6.0
  H    9    (CENTRE  9)  -0.40670774  0.17430682 -3.46883047  CHARGE =  1.0
  H   10    (CENTRE 10)   3.97924111  0.31273703 -2.01785276  CHARGE =  1.0
  H   11    (CENTRE 11)   3.55379238  2.89103211  1.88951861  CHARGE =  1.0
  H   12    (CENTRE 12)   5.19270824  0.01857752  2.60765675  CHARGE =  1.0
  H   13    (CENTRE 13)   1.95216007  0.37273068  3.49494462  CHARGE =  1.0
  H   14    (CENTRE 14)  -0.76293584  4.09822454  0.39764385  CHARGE =  1.0
  H   15    (CENTRE 15)  -1.57585592  4.23473362 -2.59991389  CHARGE =  1.0
  H   16    (CENTRE 16)   1.97068982 -3.62667930 -2.05459490  CHARGE =  1.0
  H   17    (CENTRE 17)  -4.37257447 -3.13200513  0.84887956  CHARGE =  1.0
CENTRE ASSIGNMENTS    1  1  1  1  1  1  1  1  1  1  1  1  1  1  1  2  2  2  2  2
CENTRE ASSIGNMENTS    2  2  2  2  2  2  2  2  2  2  3  3  3  3  3  3  3  3  3  3
CENTRE ASSIGNMENTS    3  3  3  3  3  4  4  4  4  4  4  4  4  4  4  4  4  4  4  4
CENTRE ASSIGNMENTS    5  5  5  5  5  5  5  5  5  5  5  5  5  5  5  6  6  6  6  6
CENTRE ASSIGNMENTS    6  6  6  6  6  6  6  6  6  6  7  7  7  7  7  7  7  7  7  7
CENTRE ASSIGNMENTS    7  7  7  7  7  8  8  8  8  8  8  8  8  8  8  8  8  8  8  8
CENTRE ASSIGNMENTS    9  9  9 10 10 10 11 11 11 12 12 12 13 13 13 14 14 14 15 15
CENTRE ASSIGNMENTS   15 16 16 16 17 17 17
TYPE ASSIGNMENTS      1  1  1  1  1  1  2  2  2  3  3  3  4  4  4  1  1  1  1  1
TYPE ASSIGNMENTS      1  2  2  2  3  3  3  4  4  4  1  1  1  1  1  1  2  2  2  3
TYPE ASSIGNMENTS      3  3  4  4  4  1  1  1  1  1  1  2  2  2  3  3  3  4  4  4
TYPE ASSIGNMENTS      1  1  1  1  1  1  2  2  2  3  3  3  4  4  4  1  1  1  1  1
TYPE ASSIGNMENTS      1  2  2  2  3  3  3  4  4  4  1  1  1  1  1  1  2  2  2  3
TYPE ASSIGNMENTS      3  3  4  4  4  1  1  1  1  1  1  2  2  2  3  3  3  4  4  4
TYPE ASSIGNMENTS      1  1  1  1  1  1  1  1  1  1  1  1  1  1  1  1  1  1  1  1
TYPE ASSIGNMENTS      1  1  1  1  1  1  1
EXPONENTS  0.1307093D+03 0.2380887D+02 0.6443608D+01 0.5033151D+01 0.1169596D+01
EXPONENTS  0.3803890D+00 0.5033151D+01 0.1169596D+01 0.3803890D+00 0.5033151D+01
EXPONENTS  0.1169596D+01 0.3803890D+00 0.5033151D+01 0.1169596D+01 0.3803890D+00
EXPONENTS  0.1307093D+03 0.2380887D+02 0.6443608D+01 0.5033151D+01 0.1169596D+01
EXPONENTS  0.3803890D+00 0.5033151D+01 0.1169596D+01 0.3803890D+00 0.5033151D+01
EXPONENTS  0.1169596D+01 0.3803890D+00 0.5033151D+01 0.1169596D+01 0.3803890D+00
EXPONENTS  0.1307093D+03 0.2380887D+02 0.6443608D+01 0.5033151D+01 0.1169596D+01
EXPONENTS  0.3803890D+00 0.5033151D+01 0.1169596D+01 0.3803890D+00 0.5033151D+01
EXPONENTS  0.1169596D+01 0.3803890D+00 0.5033151D+01 0.1169596D+01 0.3803890D+00
EXPONENTS  0.9910617D+02 0.1805231D+02 0.4885660D+01 0.3780456D+01 0.8784966D+00
EXPONENTS  0.2857144D+00 0.3780456D+01 0.8784966D+00 0.2857144D+00 0.3780456D+01
EXPONENTS  0.8784966D+00 0.2857144D+00 0.3780456D+01 0.8784966D+00 0.2857144D+00
EXPONENTS  0.7161684D+02 0.1304510D+02 0.3530512D+01 0.2941249D+01 0.6834831D+00
EXPONENTS  0.2222899D+00 0.2941249D+01 0.6834831D+00 0.2222899D+00 0.2941249D+01
EXPONENTS  0.6834831D+00 0.2222899D+00 0.2941249D+01 0.6834831D+00 0.2222899D+00
EXPONENTS  0.7161684D+02 0.1304510D+02 0.3530512D+01 0.2941249D+01 0.6834831D+00
EXPONENTS  0.2222899D+00 0.2941249D+01 0.6834831D+00 0.2222899D+00 0.2941249D+01
EXPONENTS  0.6834831D+00 0.2222899D+00 0.2941249D+01 0.6834831D+00 0.2222899D+00
EXPONENTS  0.7161684D+02 0.1304510D+02 0.3530512D+01 0.2941249D+01 0.6834831D+00
EXPONENTS  0.2222899D+00 0.2941249D+01 0.6834831D+00 0.2222899D+00 0.2941249D+01
EXPONENTS  0.6834831D+00 0.2222899D+00 0.2941249D+01 0.6834831D+00 0.2222899D+00
EXPONENTS  0.7161684D+02 0.1304510D+02 0.3530512D+01 0.2941249D+01 0.6834831D+00
EXPONENTS  0.2222899D+00 0.2941249D+01 0.6834831D+00 0.2222899D+00 0.2941249D+01
EXPONENTS  0.6834831D+00 0.2222899D+00 0.2941249D+01 0.6834831D+00 0.2222899D+00
EXPONENTS  0.3425251D+01 0.6239137D+00 0.1688554D+00 0.3425251D+01 0.6239137D+00
EXPONENTS  0.1688554D+00 0.3425251D+01 0.6239137D+00 0.1688554D+00 0.3425251D+01
EXPONENTS  0.6239137D+00 0.1688554D+00 0.3425251D+01 0.6239137D+00 0.1688554D+00
EXPONENTS  0.3425251D+01 0.6239137D+00 0.1688554D+00 0.3425251D+01 0.6239137D+00
EXPONENTS  0.1688554D+00 0.3425251D+01 0.6239137D+00 0.1688554D+00 0.3425251D+01
EXPONENTS  0.6239137D+00 0.1688554D+00
MO    1     MO 0.0        OCC NO =    2.0000000  ORB. ENERGY =  -18.942497
  0.77765055D-03  0.75210975D-03  0.23439976D-03 -0.18469895D-04  0.24704977D-04
  0.18645214D-04 -0.14914501D-04 -0.93786385D-05 -0.14857339D-05 -0.24474155D-04
 -0.15390005D-04 -0.24380354D-05 -0.81638466D-04 -0.51336458D-04 -0.81325574D-05
  0.42244329D+01  0.40856876D+01  0.12733304D+01 -0.68600981D-02  0.91759354D-02
  0.69252153D-02 -0.23243796D-02 -0.14616323D-02 -0.23154711D-03  0.43143706D-02
  0.27129920D-02  0.42978352D-03  0.50807711D-02  0.31949252D-02  0.50612983D-03
  0.36472461D-02  0.35274577D-02  0.10993545D-02 -0.43669411D-04  0.58411365D-04
  0.44083928D-04 -0.62044622D-03 -0.39015323D-03 -0.61806827D-04 -0.92474850D-03
 -0.58150667D-03 -0.92120427D-04  0.13272985D-03  0.83464092D-04  0.13222114D-04
  0.46411866D-05  0.44887536D-05  0.13989484D-05 -0.28402206D-05  0.37990245D-05
  0.28671804D-05  0.51567987D-04  0.32427334D-04  0.51370345D-05  0.33281756D-04
  0.20928461D-04  0.33154199D-05 -0.94597573D-05 -0.59485493D-05 -0.94235014D-06
 -0.21032230D-04 -0.20341457D-04 -0.63395436D-05 -0.46517342D-05  0.62220703D-05
  0.46958892D-05 -0.26361804D-04 -0.16577010D-04 -0.26260768D-05 -0.38206896D-05
 -0.24025522D-05 -0.38060463D-06  0.25772134D-04  0.16206209D-04  0.25673358D-05
 -0.70822886D-04 -0.68496812D-04 -0.21347465D-04 -0.53712200D-04  0.71844407D-04
  0.54222046D-04 -0.15670352D-03 -0.98539378D-04 -0.15610293D-04 -0.26570100D-03
 -0.16707992D-03 -0.26468266D-04 -0.70563263D-04 -0.44372074D-04 -0.70292820D-05
  0.61537301D-05  0.59516199D-05  0.18548600D-05  0.35553997D-05 -0.47556343D-05
 -0.35891481D-05  0.87367475D-05  0.54939013D-05  0.87032626D-06 -0.17690885D-05
 -0.11124504D-05 -0.17623083D-06  0.96293257D-06  0.60551784D-06  0.95924199D-07
  0.15992625D-02  0.15467371D-02  0.48205039D-03  0.77189565D-03 -0.10324728D-02
 -0.77922262D-03  0.10303030D-02  0.64788219D-03  0.10263542D-03  0.41255678D-02
  0.25942677D-02  0.41097560D-03  0.12379368D-02  0.77844785D-03  0.12331922D-03
 -0.47098004D-04 -0.45551139D-04 -0.14196301D-04  0.48606409D-05  0.47010002D-05
  0.14650964D-05  0.15537305D-05  0.15027005D-05  0.46832612D-06 -0.18731771D-06
 -0.18116554D-06 -0.56461385D-07  0.56961501D-05  0.55090684D-05  0.17169360D-05
 -0.29457702D-04 -0.28490207D-04 -0.88791530D-05  0.21206005D-05  0.20509525D-05
  0.63919230D-06 -0.48106423D-04 -0.46526438D-04 -0.14500258D-04 -0.17558033D-02
 -0.16981365D-02 -0.52923499D-03
MO    2     MO 0.0        OCC NO =    2.0000000  ORB. ENERGY =  -18.878243
 -0.18877383D-02 -0.18257383D-02 -0.56900287D-03  0.58919241D-05 -0.78809244D-05
 -0.59478512D-05  0.21592073D-04  0.13577675D-04  0.21509318D-05 -0.22894034D-04
 -0.14396383D-04 -0.22806290D-05 -0.16079054D-05 -0.10110941D-05 -0.16017429D-06
 -0.39633828D-02 -0.38332113D-02 -0.11946445D-02 -0.54415371D-04  0.72784955D-04
  0.54931892D-04 -0.57681896D-03 -0.36271924D-03 -0.57460821D-04  0.20406352D-03
  0.12832062D-03  0.20328142D-04  0.71451122D-03  0.44930383D-03  0.71177275D-04
  0.42246714D+01  0.40859182D+01  0.12734022D+01 -0.68927186D-02  0.92195679D-02
  0.69581454D-02  0.42286411D-02  0.26590830D-02  0.42124342D-03 -0.50124147D-02
 -0.31519408D-02 -0.49932038D-03 -0.71651699D-02 -0.45056511D-02 -0.71377084D-03
 -0.67835611D-04 -0.65607649D-04 -0.20447039D-04 -0.33469853D-04  0.44768632D-04
  0.33787554D-04 -0.13346730D-03 -0.83927820D-04 -0.13295577D-04  0.12236689D-03
  0.76947587D-04  0.12189791D-04  0.23459802D-03  0.14752153D-03  0.23369889D-04
 -0.16818204D-04 -0.16265835D-04 -0.50693502D-05 -0.38787256D-05  0.51881089D-05
  0.39155432D-05 -0.31715959D-04 -0.19943846D-04 -0.31594403D-05 -0.13441215D-04
 -0.84521966D-05 -0.13389700D-05  0.55650546D-05  0.34994557D-05  0.55437257D-06
 -0.59188445D-04 -0.57244487D-04 -0.17840606D-04 -0.25427657D-04  0.34011546D-04
  0.25669021D-04 -0.95261227D-04 -0.59902816D-04 -0.94896124D-05  0.34794657D-03
  0.21879814D-03  0.34661301D-04  0.27055548D-03  0.17013255D-03  0.26951854D-04
 -0.18889030D-04 -0.18268648D-04 -0.56935396D-05 -0.59466296D-05  0.79540975D-05
  0.60030761D-05 -0.42694131D-04 -0.26847215D-04 -0.42530500D-05 -0.91905678D-05
 -0.57792757D-05 -0.91553437D-06  0.10718157D-04  0.67398650D-05  0.10677079D-05
  0.18416785D-02  0.17811913D-02  0.55511952D-03  0.12576298D-02 -0.16821815D-02
 -0.12695675D-02  0.27606106D-02  0.17359460D-02  0.27500302D-03 -0.32525237D-02
 -0.20452742D-02 -0.32400579D-03 -0.46614642D-02 -0.29312538D-02 -0.46435985D-03
  0.76318490D-05  0.73811921D-05  0.23003952D-05  0.43005787D-05  0.41593325D-05
  0.12962823D-05  0.32026778D-05  0.30974905D-05  0.96535250D-06  0.19444130D-05
  0.18805516D-05  0.58608578D-06 -0.11820450D-04 -0.11432224D-04 -0.35629249D-05
 -0.14752661D-03 -0.14268131D-03 -0.44467533D-04  0.29497103D-05  0.28528314D-05
  0.88910292D-06 -0.38485349D-05 -0.37221354D-05 -0.11600270D-05 -0.32560052D-04
 -0.31490665D-04 -0.98142648D-05
MO    3     MO 0.0        OCC NO =    2.0000000  ORB. ENERGY =  -18.871103
  0.42246224D+01  0.40858709D+01  0.12733875D+01 -0.67626225D-02  0.90455539D-02
  0.68268145D-02 -0.13879361D-02 -0.87277148D-03 -0.13826167D-03  0.35857593D-02
  0.22548217D-02  0.35720164D-03 -0.56179459D-02 -0.35327151D-02 -0.55964143D-03
 -0.86422927D-03 -0.83584492D-03 -0.26049635D-03 -0.14179967D-04  0.18966852D-04
  0.14314566D-04  0.62996815D-04  0.39614088D-04  0.62755371D-05  0.12339397D-05
  0.77593438D-06  0.12292104D-06 -0.39200219D-04 -0.24650149D-04 -0.39049978D-05
  0.19063127D-02  0.18437027D-02  0.57460160D-03  0.27000529D-05 -0.36115389D-05
 -0.27256823D-05 -0.80494397D-05 -0.50617037D-05 -0.80185891D-06  0.95783318D-05
  0.60231121D-05  0.95416215D-06  0.21831119D-04  0.13727994D-04  0.21747448D-05
  0.95255534D-05  0.92127006D-05  0.28711964D-05 -0.23008670D-05  0.30775954D-05
  0.23227072D-05 -0.10101875D-03 -0.63523299D-04 -0.10063158D-04  0.51908620D-06
  0.32641533D-06  0.51709673D-07 -0.24889626D-04 -0.15651265D-04 -0.24794233D-05
  0.16544454D-02  0.16001076D-02  0.49868363D-03  0.73859487D-03 -0.98793031D-03
 -0.74560574D-03  0.44867991D-04  0.28214197D-04  0.44696028D-05  0.39035640D-02
  0.24546658D-02  0.38886030D-03 -0.58880223D-03 -0.37025464D-03 -0.58654556D-04
 -0.64920044D-04 -0.62787840D-04 -0.19568227D-04 -0.37159283D-04  0.49703543D-04
  0.37512006D-04  0.75044891D-04  0.47190241D-04  0.74757271D-05 -0.35505349D-03
 -0.22326716D-03 -0.35369270D-04  0.74689244D-04  0.46966601D-04  0.74402987D-05
 -0.76059470D-04 -0.73561408D-04 -0.22925878D-04 -0.72040872D-04  0.96360486D-04
  0.72724696D-04 -0.39197847D-04 -0.24648658D-04 -0.39047616D-05 -0.21068417D-03
 -0.13248386D-03 -0.20987669D-04 -0.11200268D-03 -0.70430289D-04 -0.11157341D-04
  0.64433617D-05  0.62317389D-05  0.19421608D-05  0.55712589D-05 -0.74520089D-05
 -0.56241423D-05 -0.27652226D-04 -0.17388462D-04 -0.27546245D-05  0.41095049D-04
  0.25841670D-04  0.40937546D-05  0.42842486D-04  0.26940505D-04  0.42678286D-05
  0.50274554D-04  0.48623360D-04  0.15153777D-04  0.95759266D-04  0.92614193D-04
  0.28863799D-04 -0.26426737D-04 -0.25558790D-04 -0.79655583D-05 -0.32028696D-04
 -0.30976760D-04 -0.96541032D-05 -0.23331461D-04 -0.22565173D-04 -0.70325790D-05
 -0.19460146D-05 -0.18821006D-05 -0.58656854D-06 -0.60517762D-05 -0.58530145D-05
 -0.18241290D-05 -0.17866750D-02 -0.17279943D-02 -0.53854033D-03 -0.22520092D-07
 -0.21780453D-07 -0.67880157D-08
MO    4     MO 0.0        OCC NO =    2.0000000  ORB. ENERGY =  -14.114137
  0.20437780D-04  0.19766531D-04  0.61603642D-05  0.24399633D-05 -0.32636480D-05
 -0.24631238D-05  0.71528517D-04  0.44979051D-04  0.71254373D-05 -0.64090107D-04
 -0.40301579D-04 -0.63844472D-05 -0.10250378D-04 -0.64457128D-05 -0.10211092D-05
  0.21759869D-04  0.21045198D-04  0.65588689D-05  0.27768156D-05 -0.37142152D-05
 -0.28031736D-05 -0.71517698D-04 -0.44972248D-04 -0.71243596D-05 -0.17192828D-05
 -0.10811312D-05 -0.17126934D-06  0.68167553D-04  0.42865587D-04  0.67906291D-05
 -0.16234550D-03 -0.15701350D-03 -0.48934250D-04 -0.31367619D-04  0.41956725D-04
  0.31665366D-04  0.14630578D-03  0.92001000D-04  0.14574504D-04  0.34880629D-03
  0.21933875D-03  0.34746944D-04  0.23488238D-04  0.14770034D-04  0.23398216D-05
  0.34290033D+01  0.33163827D+01  0.10335716D+01 -0.67859591D-02  0.90767685D-02
  0.68503726D-02 -0.60259819D-02 -0.37892991D-02 -0.60028865D-03 -0.24296051D-02
 -0.15278009D-02 -0.24202933D-03  0.15642921D-02  0.98366883D-03  0.15582967D-03
 -0.15326112D-04 -0.14822748D-04 -0.46196032D-05 -0.41442404D-04  0.55432564D-04
  0.41835783D-04 -0.73147839D-04 -0.45997324D-04 -0.72867489D-05  0.13631068D-03
  0.85715814D-04  0.13578825D-04 -0.23226993D-04 -0.14605756D-04 -0.23137972D-05
  0.15873635D-02  0.15352289D-02  0.47846378D-03  0.92515177D-03 -0.12374652D-02
 -0.93393347D-03 -0.89792942D-05 -0.56464211D-05 -0.89448797D-06 -0.44281217D-02
 -0.27845217D-02 -0.44111503D-03 -0.71708147D-04 -0.45092007D-04 -0.71433315D-05
 -0.24216128D-04 -0.23420785D-04 -0.72992357D-05 -0.13228300D-04  0.17693920D-04
  0.13353865D-04 -0.18165463D-04 -0.11422931D-04 -0.18095841D-05  0.60988976D-04
  0.38351505D-04  0.60755227D-05  0.33047550D-04  0.20781186D-04  0.32920890D-05
 -0.76817748D-04 -0.74294782D-04 -0.23154438D-04 -0.71524270D-04  0.95669489D-04
  0.72203190D-04  0.10220165D-03  0.64267140D-04  0.10180995D-04  0.33581703D-03
  0.21117076D-03  0.33452997D-04 -0.37032815D-04 -0.23287228D-04 -0.36890882D-05
  0.12525139D-03  0.12113769D-03  0.37753326D-04 -0.24306581D-04 -0.23508267D-04
 -0.73265000D-05 -0.55036303D-04 -0.53228717D-04 -0.16589066D-04  0.27269364D-06
  0.26373741D-06  0.82195432D-07  0.17996092D-04  0.17405036D-04  0.54243896D-05
 -0.21490440D-02 -0.20784618D-02 -0.64776576D-03 -0.21540821D-02 -0.20833344D-02
 -0.64928433D-03 -0.23283293D-04 -0.22518587D-04 -0.70180600D-05 -0.88531152D-06
 -0.85623476D-06 -0.26685097D-06
MO    5     MO 0.0        OCC NO =    2.0000000  ORB. ENERGY =  -10.104100
  0.13224111D-04  0.12789785D-04  0.39860173D-05 -0.93973952D-05  0.12569775D-04
  0.94865969D-05  0.17383211D-03  0.10931029D-03  0.17316587D-04  0.42119943D-04
  0.26486150D-04  0.41958512D-05 -0.10334655D-03 -0.64987082D-04 -0.10295046D-04
  0.26188348D-02  0.25328230D-02  0.78937029D-03  0.12891818D-02 -0.17243848D-02
 -0.13014189D-02 -0.20459317D-02 -0.12865368D-02 -0.20380904D-03 -0.60222292D-02
 -0.37869393D-02 -0.59991482D-03 -0.11774415D-02 -0.74040683D-03 -0.11729288D-03
  0.23421650D-02  0.22652401D-02  0.70597638D-03  0.18037583D-02 -0.24126725D-02
 -0.18208799D-02 -0.22800808D-02 -0.14337760D-02 -0.22713421D-03  0.28849062D-02
  0.18141064D-02  0.28738494D-03  0.39626217D-02  0.24918028D-02  0.39474343D-03
 -0.16043948D-03 -0.15517008D-03 -0.48359736D-04 -0.12075236D-03  0.16151603D-03
  0.12189856D-03 -0.73938019D-04 -0.46494210D-04 -0.73654641D-05 -0.86594030D-04
 -0.54452650D-04 -0.86262145D-05  0.18408848D-03  0.11575978D-03  0.18338294D-04
 -0.28324479D-02 -0.27394203D-02 -0.85375765D-03 -0.27400453D-05  0.36650320D-05
  0.27660543D-05  0.13623580D-03  0.85668728D-04  0.13571366D-04  0.15166662D-03
  0.95372042D-04  0.15108534D-04 -0.20813007D-03 -0.13087777D-03 -0.20733238D-04
 -0.26163318D-01 -0.25304023D-01 -0.78861586D-02  0.11096552D-02 -0.14842534D-02
 -0.11201882D-02  0.33897629D-02  0.21315738D-02  0.33767711D-03  0.13767095D-02
  0.86571186D-03  0.13714330D-03 -0.26665705D-02 -0.16768111D-02 -0.26563505D-03
  0.25729079D-03  0.24884045D-03  0.77552700D-04 -0.42096213D-04  0.56307086D-04
  0.42495798D-04 -0.10394364D-04 -0.65362551D-05 -0.10354526D-05 -0.30419698D-04
 -0.19128722D-04 -0.30303110D-05  0.11829375D-03  0.74386283D-04  0.11784037D-04
  0.26839251D+01  0.25957755D+01  0.80898984D+00 -0.60469885D-02  0.80883356D-02
  0.61043875D-02 -0.23150927D-03 -0.14557924D-03 -0.23062198D-04  0.42372293D-03
  0.26644835D-03  0.42209895D-04  0.48702577D-03  0.30625488D-03  0.48515918D-04
  0.27720999D-06  0.26810543D-06  0.83556753D-07 -0.52280809D-04 -0.50563723D-04
 -0.15758504D-04  0.25790687D-05  0.24943629D-05  0.77738398D-06 -0.11216711D-04
 -0.10848314D-04 -0.33809457D-05 -0.16176001D-03 -0.15644724D-03 -0.48757772D-04
 -0.22081348D-03 -0.21356119D-03 -0.66557695D-04 -0.55471110D-04 -0.53649243D-04
 -0.16720126D-04 -0.23455869D-04 -0.22685495D-04 -0.70700780D-05 -0.46940084D-03
 -0.45398405D-03 -0.14148700D-03
MO    6     MO 0.0        OCC NO =    2.0000000  ORB. ENERGY =  -10.058108
  0.28618556D-02  0.27678621D-02  0.86262172D-03  0.12893253D-02 -0.17245768D-02
 -0.13015638D-02 -0.31371574D-03 -0.19727288D-03 -0.31251338D-04 -0.67816952D-02
 -0.42645119D-02 -0.67557034D-03  0.15537979D-03  0.97706982D-04  0.15478427D-04
 -0.37392563D-04 -0.36164459D-04 -0.11270882D-04 -0.66279419D-05  0.88654077D-05
  0.66908554D-05  0.46537566D-04  0.29264070D-04  0.46359204D-05  0.45397332D-04
  0.28547061D-04  0.45223340D-05  0.88321056D-05  0.55538650D-05  0.87982553D-06
 -0.20321458D-04 -0.19654030D-04 -0.61253026D-05 -0.24637596D-05  0.32954775D-05
  0.24871461D-05  0.24906848D-04  0.15662094D-04  0.24811389D-05 -0.96877406D-04
 -0.60919112D-04 -0.96506109D-05  0.36692562D-04  0.23073268D-04  0.36551933D-05
 -0.35470506D-03 -0.34305529D-03 -0.10691535D-03 -0.20068177D-03  0.26842807D-03
  0.20258667D-03 -0.54865055D-04 -0.34500619D-04 -0.54654777D-05 -0.92123252D-03
 -0.57929573D-03 -0.91770177D-04 -0.96352869D-04 -0.60589269D-04 -0.95983582D-05
  0.26561494D+01  0.25689120D+01  0.80061767D+00 -0.68243208D-02  0.91280803D-02
  0.68890984D-02 -0.11216687D-03 -0.70533541D-04 -0.11173698D-04  0.99076162D-03
  0.62301750D-03  0.98696439D-04 -0.29938640D-03 -0.18826220D-03 -0.29823895D-04
 -0.36960307D+00 -0.35746399D+00 -0.11140591D+00  0.20068982D-02 -0.26843885D-02
 -0.20259480D-02 -0.39822171D-02 -0.25041250D-02 -0.39669546D-03  0.17731537D-02
  0.11150066D-02  0.17663578D-03 -0.13787427D-02 -0.86699040D-03 -0.13734585D-03
 -0.22790318D-01 -0.22041803D-01 -0.68694673D-02  0.11944731D-02 -0.15977043D-02
 -0.12058112D-02  0.13046732D-02  0.82041351D-03  0.12996728D-03  0.18794557D-02
  0.11818522D-02  0.18722524D-03  0.42459804D-02  0.26699864D-02  0.42297070D-03
 -0.10844335D-02 -0.10488169D-02 -0.32687041D-03 -0.14567299D-03  0.19484940D-03
  0.14705575D-03  0.43667799D-03  0.27459484D-03  0.43500436D-04  0.34921497D-03
  0.21959574D-03  0.34787655D-04 -0.48302009D-03 -0.30373599D-03 -0.48116885D-04
  0.38898990D-03  0.37621410D-03  0.11724950D-03 -0.24787217D-02 -0.23973117D-02
 -0.74713736D-03  0.50601154D-04  0.48939233D-04  0.15252221D-04  0.43048998D-04
  0.41635116D-04  0.12975847D-04  0.33078684D-04  0.31992263D-04  0.99705910D-05
  0.24494268D-04  0.23689790D-04  0.73830728D-05 -0.23358427D-04 -0.22591254D-04
 -0.70407071D-05 -0.33892258D-03 -0.32779116D-03 -0.10215819D-03  0.66457688D-05
  0.64274983D-05  0.20031705D-05
MO    7     MO 0.0        OCC NO =    2.0000000  ORB. ENERGY =  -10.054233
  0.29644906D-03  0.28671263D-03  0.89355802D-04  0.10921943D-03 -0.14608981D-03
 -0.11025616D-03 -0.20297276D-03 -0.12763472D-03 -0.20219484D-04 -0.69972445D-03
 -0.44000551D-03 -0.69704266D-04 -0.13160659D-03 -0.82757758D-04 -0.13110219D-04
 -0.75507813D-04 -0.73027870D-04 -0.22759597D-04 -0.65650414D-04  0.87812732D-04
  0.66273579D-04  0.72069838D-04  0.45319448D-04  0.71793620D-05  0.20559000D-03
  0.12928051D-03  0.20480205D-04 -0.37539876D-04 -0.23606081D-04 -0.37395999D-05
 -0.93464144D-04 -0.90394451D-04 -0.28172002D-04 -0.33411482D-04  0.44690556D-04
  0.33728630D-04  0.40364006D-03  0.25381970D-03  0.40209305D-04  0.35534168D-03
  0.22344838D-03  0.35397978D-04 -0.24090997D-03 -0.15149065D-03 -0.23998665D-04
  0.26618631D-02  0.25744381D-02  0.80233989D-03  0.11347837D-02 -0.15178649D-02
 -0.11455553D-02 -0.10967693D-03 -0.68967796D-04 -0.10925658D-04  0.57347656D-02
  0.36061745D-02  0.57127862D-03  0.22418896D-03  0.14097604D-03  0.22332973D-04
  0.37367594D+00  0.36140310D+00  0.11263356D+00  0.12332070D-03 -0.16495140D-03
 -0.12449128D-03  0.41234075D-02  0.25929093D-02  0.41076039D-03 -0.15639486D-02
 -0.98345283D-03 -0.15579545D-03  0.13887525D-02  0.87328487D-03  0.13834300D-03
  0.26564409D+01  0.25691940D+01  0.80070556D+00 -0.66372874D-02  0.88779081D-02
  0.67002897D-02 -0.88404206D-03 -0.55590937D-03 -0.88065384D-04 -0.11347980D-03
 -0.71359144D-04 -0.11304487D-04 -0.70275610D-03 -0.44191190D-03 -0.70006269D-04
 -0.48281402D-02 -0.46695670D-02 -0.14553001D-02  0.14435790D-03 -0.19309035D-03
 -0.14572817D-03  0.26911536D-03  0.16922696D-03  0.26808394D-04  0.19594497D-03
  0.12321545D-03  0.19519398D-04  0.58715987D-03  0.36922189D-03  0.58490950D-04
  0.30428377D-01  0.29429001D-01  0.91717343D-02  0.10576059D-02 -0.14146333D-02
 -0.10676448D-02 -0.35487134D-02 -0.22315262D-02 -0.35351125D-03 -0.16880764D-02
 -0.10615078D-02 -0.16816067D-03  0.27646854D-02  0.17385084D-02  0.27540893D-03
 -0.25226245D-02 -0.24397726D-02 -0.76037056D-03 -0.32475817D-03 -0.31409196D-03
 -0.97888746D-04 -0.62389661D-05 -0.60340564D-05 -0.18805518D-05 -0.35708360D-04
 -0.34535571D-04 -0.10763229D-04 -0.10443773D-04 -0.10100763D-04 -0.31479665D-05
 -0.15080957D-03 -0.14585645D-03 -0.45457084D-04 -0.13844004D-03 -0.13389318D-03
 -0.41728655D-04 -0.89127182D-04 -0.86199931D-04 -0.26864753D-04 -0.43490183D-04
 -0.42061811D-04 -0.13108829D-04
MO    8     MO 0.0        OCC NO =    2.0000000  ORB. ENERGY =  -10.003350
 -0.54238672D-04 -0.52457282D-04 -0.16348644D-04 -0.69887981D-04  0.93480821D-04
  0.70551370D-04 -0.24789293D-04 -0.15588173D-04 -0.24694285D-05  0.19941057D-03
  0.12539472D-03  0.19864630D-04 -0.17102518D-03 -0.10754523D-03 -0.17036971D-04
  0.10033804D-04  0.97042583D-05  0.30243935D-05  0.46479130D-05 -0.62169592D-05
 -0.46920318D-05  0.71536105D-06  0.44983823D-06  0.71261933D-07 -0.25411888D-04
 -0.15979677D-04 -0.25314493D-05 -0.65877068D-05 -0.41425268D-05 -0.65624584D-06
 -0.44366476D-04 -0.42909324D-04 -0.13372962D-04 -0.10560313D-04  0.14125271D-04
  0.10660553D-04  0.82247839D-04  0.51719648D-04  0.81932613D-05  0.71103107D-05
  0.44711542D-05  0.70830594D-06  0.45455407D-04  0.28583580D-04  0.45281193D-05
 -0.40627409D-04 -0.39293062D-04 -0.12245931D-04 -0.18497983D-04  0.24742547D-04
  0.18673569D-04  0.39889433D-04  0.25083546D-04  0.39736551D-05  0.35230145D-04
  0.22153660D-04  0.35095120D-05 -0.90618373D-05 -0.56983265D-05 -0.90271065D-06
  0.27366579D-01  0.26467763D-01  0.82488458D-02  0.10787637D-02 -0.14429336D-02
 -0.10890035D-02 -0.13175182D-02 -0.82849082D-03 -0.13124686D-03 -0.17781832D-02
 -0.11181693D-02 -0.17713681D-03 -0.43257527D-02 -0.27201494D-02 -0.43091736D-03
  0.17857245D-02  0.17270750D-02  0.53825383D-03 -0.17044076D-04  0.22797829D-04
  0.17205862D-04  0.17610249D-04  0.11073797D-04  0.17542755D-05 -0.47299426D-04
 -0.29743149D-04 -0.47118144D-05 -0.82325209D-04 -0.51768300D-04 -0.82009685D-05
  0.26815185D+01  0.25934480D+01  0.80826446D+00 -0.72826269D-02  0.97411018D-02
  0.73517548D-02  0.14904095D-03  0.93720952D-04  0.14846973D-04  0.14029365D-03
  0.88220410D-04  0.13975595D-04  0.32883525D-03  0.20678043D-03  0.32757494D-04
 -0.30097603D-03 -0.29109092D-03 -0.90720324D-04 -0.13130366D-04  0.17562925D-04
  0.13255001D-04  0.31818154D-04  0.20008109D-04  0.31696206D-05 -0.32009998D-04
 -0.20128746D-04 -0.31887315D-05  0.17026031D-04  0.10706425D-04  0.16960776D-05
 -0.39820604D-04 -0.38512754D-04 -0.12002743D-04  0.16554837D-04  0.16011118D-04
  0.49899660D-05 -0.25460744D-02 -0.24624523D-02 -0.76743883D-03 -0.25451093D-02
 -0.24615190D-02 -0.76714794D-03 -0.25432453D-02 -0.24597161D-02 -0.76658608D-03
 -0.60853486D-05 -0.58854843D-05 -0.18342484D-05 -0.30031382D-05 -0.29045045D-05
 -0.90520719D-06 -0.48435404D-04 -0.46844614D-04 -0.14599420D-04  0.12261982D-05
  0.11859255D-05  0.36960119D-06
MO    9     MO 0.0        OCC NO =    2.0000000  ORB. ENERGY =   -1.021783
 -0.39902619D-01 -0.38592075D-01 -0.12027464D-01 -0.78138985D-02  0.10451720D-01
  0.78880693D-02 -0.66305654D-02 -0.41694775D-02 -0.66051528D-03  0.82880737D-02
  0.52117631D-02  0.82563085D-03 -0.79830988D-02 -0.50199868D-02 -0.79525025D-03
 -0.69744259D+00 -0.67453611D+00 -0.21022344D+00 -0.13883023D+00  0.18569664D+00
  0.14014803D+00 -0.59894429D-01 -0.37663224D-01 -0.59664875D-02  0.15211759D+00
  0.95655625D-01  0.15153458D-01  0.15090239D+00  0.94891475D-01  0.15032404D-01
 -0.54519390D+00 -0.52728780D+00 -0.16433258D+00 -0.10454458D+00  0.13983682D+00
  0.10553693D+00  0.88770542D-01  0.55821299D-01  0.88430316D-02 -0.12535792D+00
 -0.78828421D-01 -0.12487746D-01 -0.16294524D+00 -0.10246434D+00 -0.16232073D-01
 -0.31151114D-01 -0.30128001D-01 -0.93895820D-02 -0.53093327D-02  0.71016613D-02
  0.53597298D-02 -0.82490771D-02 -0.51872410D-02 -0.82174613D-03 -0.91323857D-02
 -0.57426892D-02 -0.90973845D-03  0.37901533D-02  0.23833501D-02  0.37756270D-03
 -0.19127309D-01 -0.18499101D-01 -0.57653618D-02 -0.27243118D-02  0.36439872D-02
  0.27501715D-02 -0.43269977D-02 -0.27209323D-02 -0.43104139D-03 -0.22758472D-02
 -0.14311138D-02 -0.22671247D-03 -0.21737662D-03 -0.13669225D-03 -0.21654349D-04
 -0.59361534D-01 -0.57411892D-01 -0.17892779D-01 -0.87466173D-02  0.11699307D-01
  0.88296417D-02 -0.16368904D-01 -0.10293206D-01 -0.16306168D-02 -0.80097845D-02
 -0.50367674D-02 -0.79790859D-03  0.11886926D-01  0.74748179D-02  0.11841367D-02
 -0.50540840D-02 -0.48880900D-02 -0.15234041D-02 -0.68377966D-03  0.91461053D-03
  0.69027021D-03 -0.12768755D-02 -0.80293356D-03 -0.12719817D-03 -0.57352194D-03
 -0.36064599D-03 -0.57132383D-04 -0.11356554D-02 -0.71413061D-03 -0.11313029D-03
 -0.34655482D+00 -0.33517274D+00 -0.10445870D+00 -0.49191925D-01  0.65798173D-01
  0.49658863D-01 -0.56068276D-01 -0.35257236D-01 -0.55853386D-02 -0.21922097D-01
 -0.13785203D-01 -0.21838077D-02  0.44524677D-01  0.27998312D-01  0.44354030D-02
  0.23020664D-02  0.22264584D-02  0.69388985D-03  0.49080589D-03  0.47468609D-03
  0.14793892D-03  0.17164965D-03  0.16601207D-03  0.51738710D-04  0.13158039D-03
  0.12725883D-03  0.39661018D-04  0.65266757D-03  0.63123166D-03  0.19672734D-03
  0.24831863D-02  0.24016297D-02  0.74848308D-03  0.11052699D-02  0.10689690D-02
  0.33315093D-03  0.20361273D-02  0.19692537D-02  0.61373035D-03  0.27600242D-01
  0.26693752D-01  0.83192765D-02
MO   10     MO 0.0        OCC NO =    2.0000000  ORB. ENERGY =   -0.943183
  0.14535925D+00  0.14058514D+00  0.43814248D-01  0.29155674D-01 -0.38998069D-01
 -0.29432424D-01  0.11508677D-01  0.72369647D-02  0.11464568D-02 -0.22796540D-01
 -0.14335076D-01 -0.22709169D-02  0.33056358D-01  0.20786725D-01  0.32929665D-02
  0.65639165D+00  0.63483343D+00  0.19784985D+00  0.13428572D+00 -0.17961799D+00
 -0.13556038D+00  0.70123069D-01  0.44095267D-01  0.69854312D-02 -0.74483439D-01
 -0.46837185D-01 -0.74197971D-02 -0.11983401D+00 -0.75354840D-01 -0.11937473D-01
 -0.72791081D+00 -0.70400365D+00 -0.21940719D+00 -0.14380351D+00  0.19234882D+00
  0.14516852D+00  0.11536549D+00  0.72544914D-01  0.11492333D-01 -0.11594422D+00
 -0.72908835D-01 -0.11549984D-01 -0.18632623D+00 -0.11716694D+00 -0.18561211D-01
 -0.42487283D-01 -0.41091851D-01 -0.12806535D-01 -0.74102048D-02  0.99117476D-02
  0.74805438D-02 -0.12534884D-01 -0.78822715D-02 -0.12486842D-02 -0.83994898D-02
 -0.52818246D-02 -0.83672975D-03  0.62069269D-02  0.39030822D-02  0.61831380D-03
  0.32155193D-01  0.31099103D-01  0.96922320D-02  0.49830562D-02 -0.66652402D-02
 -0.50303562D-02 -0.23534064D-03 -0.14798851D-03 -0.23443866D-04  0.14848245D-01
  0.93369752D-02  0.14791337D-02 -0.80027192D-04 -0.50323246D-04 -0.79720476D-05
 -0.17058071D-01 -0.16497824D-01 -0.51416510D-02 -0.28224932D-02  0.37753127D-02
  0.28492848D-02 -0.83475480D-02 -0.52491622D-02 -0.83155548D-03  0.91037604D-02
  0.57246888D-02  0.90688689D-03  0.74619735D-02  0.46922892D-02  0.74333744D-03
  0.47526547D-02  0.45965607D-02  0.14325472D-02  0.68172891D-03 -0.91186749D-03
 -0.68820000D-03 -0.40372621D-03 -0.25387387D-03 -0.40217887D-04  0.21501841D-02
  0.13520934D-02  0.21419432D-03  0.16509957D-02  0.10381904D-02  0.16446680D-03
 -0.12925146D+00 -0.12500639D+00 -0.38959032D-01 -0.17662335D-01  0.23624799D-01
  0.17829989D-01 -0.34234600D-01 -0.21527635D-01 -0.34103391D-02  0.13585909D+00
  0.85431839D-01  0.13533839D-01  0.10914145D+00  0.68631075D-01  0.10872315D-01
 -0.42297888D-03 -0.40908676D-03 -0.12749447D-03 -0.10212657D-02 -0.98772370D-03
 -0.30783034D-03 -0.49235051D-04 -0.47617998D-04 -0.14840450D-04 -0.29762878D-03
 -0.28785360D-03 -0.89711395D-04  0.38131821D-03  0.36879437D-03  0.11493710D-03
  0.40789049D-02  0.39449392D-02  0.12294653D-02  0.18493501D-02  0.17886109D-02
  0.55743188D-03 -0.71044252D-02 -0.68710908D-02 -0.21414189D-02 -0.28883340D-01
 -0.27934709D-01 -0.87060285D-02
MO   11     MO 0.0        OCC NO =    2.0000000  ORB. ENERGY =   -0.937102
 -0.90883474D+00 -0.87898539D+00 -0.27394135D+00 -0.18254710D+00  0.24417150D+00
  0.18427987D+00 -0.51678693D-01 -0.32496949D-01 -0.51480627D-02  0.15050404D+00
  0.94640981D-01  0.14992721D-01 -0.20707241D+00 -0.13021269D+00 -0.20627878D-01
  0.15052954D+00  0.14558562D+00  0.45372679D-01  0.30828236D-01 -0.41235257D-01