 opt tryptophan m062x
GAUSSIAN             54 MOL ORBITALS    261 PRIMITIVES       27 NUCLEI
  O    1    (CENTRE  1)   2.42290240 -1.56516848  3.39366777  CHARGE =  8.0
  O    2    (CENTRE  2)   3.97740618 -3.86906183  0.00467673  CHARGE =  8.0
  N    3    (CENTRE  3)  -3.35168167  3.92763313  0.91337087  CHARGE =  7.0
  N    4    (CENTRE  4)   7.24961002  0.50621248 -0.98762726  CHARGE =  7.0
  C    5    (CENTRE  5)   0.16688056  2.24250603 -0.87047353  CHARGE =  6.0
  C    6    (CENTRE  6)   2.83977080  1.90920689 -1.85881045  CHARGE =  6.0
  C    7    (CENTRE  7)  -1.79590506  0.31744115 -0.80568396  CHARGE =  6.0
  C    8    (CENTRE  8)   4.67831750  0.82659603  0.18494955  CHARGE =  6.0
  C    9    (CENTRE  9)  -3.97535840  1.42090909  0.31447965  CHARGE =  6.0
  C   10    (CENTRE 10)  -0.83776140  4.38078251  0.17936893  CHARGE =  6.0
  C   11    (CENTRE 11)  -1.91284827 -2.22730729 -1.60922685  CHARGE =  6.0
  C   12    (CENTRE 12)  -6.24304759  0.06653146  0.65897228  CHARGE =  6.0
  C   13    (CENTRE 13)   3.71968650 -1.81359424  1.08698480  CHARGE =  6.0
  C   14    (CENTRE 14)  -4.14106226 -3.56412921 -1.27160362  CHARGE =  6.0
  C   15    (CENTRE 15)  -6.28786505 -2.42634944 -0.14547979  CHARGE =  6.0
  H   16    (CENTRE 16)   2.85628992  0.60944554 -3.47846710  CHARGE =  1.0
  H   17    (CENTRE 17)   3.59389626  3.73658023 -2.49794513  CHARGE =  1.0
  H   18    (CENTRE 18)   4.65498869  2.09432108  1.85089408  CHARGE =  1.0
  H   19    (CENTRE 19)   0.00830712  6.23797461  0.47939207  CHARGE =  1.0
  H   20    (CENTRE 20)  -4.55052325  5.23648764  1.73852391  CHARGE =  1.0
  H   21    (CENTRE 21)  -0.26409168 -3.12400012 -2.47605865  CHARGE =  1.0
  H   22    (CENTRE 22)  -7.89370720  0.95440008  1.52464148  CHARGE =  1.0
  H   23    (CENTRE 23)  -4.25865934 -5.53305738 -1.88285892  CHARGE =  1.0
  H   24    (CENTRE 24)   8.45774242 -0.03004117  0.50209125  CHARGE =  1.0
  H   25    (CENTRE 25)   7.85547230  2.35562516 -1.41200148  CHARGE =  1.0
  H   26    (CENTRE 26)  -8.01182248 -3.54040459  0.08845434  CHARGE =  1.0
  H   27    (CENTRE 27)   1.79929619 -3.35596577  3.71551085  CHARGE =  1.0
CENTRE ASSIGNMENTS    1  1  1  1  1  1  1  1  1  1  1  1  1  1  1  2  2  2  2  2
CENTRE ASSIGNMENTS    2  2  2  2  2  2  2  2  2  2  3  3  3  3  3  3  3  3  3  3
CENTRE ASSIGNMENTS    3  3  3  3  3  4  4  4  4  4  4  4  4  4  4  4  4  4  4  4
CENTRE ASSIGNMENTS    5  5  5  5  5  5  5  5  5  5  5  5  5  5  5  6  6  6  6  6
CENTRE ASSIGNMENTS    6  6  6  6  6  6  6  6  6  6  7  7  7  7  7  7  7  7  7  7
CENTRE ASSIGNMENTS    7  7  7  7  7  8  8  8  8  8  8  8  8  8  8  8  8  8  8  8
CENTRE ASSIGNMENTS    9  9  9  9  9  9  9  9  9  9  9  9  9  9  9 10 10 10 10 10
CENTRE ASSIGNMENTS   10 10 10 10 10 10 10 10 10 10 11 11 11 11 11 11 11 11 11 11
CENTRE ASSIGNMENTS   11 11 11 11 11 12 12 12 12 12 12 12 12 12 12 12 12 12 12 12
CENTRE ASSIGNMENTS   13 13 13 13 13 13 13 13 13 13 13 13 13 13 13 14 14 14 14 14
CENTRE ASSIGNMENTS   14 14 14 14 14 14 14 14 14 14 15 15 15 15 15 15 15 15 15 15
CENTRE ASSIGNMENTS   15 15 15 15 15 16 16 16 17 17 17 18 18 18 19 19 19 20 20 20
CENTRE ASSIGNMENTS   21 21 21 22 22 22 23 23 23 24 24 24 25 25 25 26 26 26 27 27
CENTRE ASSIGNMENTS   27
TYPE ASSIGNMENTS      1  1  1  1  1  1  2  2  2  3  3  3  4  4  4  1  1  1  1  1
TYPE ASSIGNMENTS      1  2  2  2  3  3  3  4  4  4  1  1  1  1  1  1  2  2  2  3
TYPE ASSIGNMENTS      3  3  4  4  4  1  1  1  1  1  1  2  2  2  3  3  3  4  4  4
TYPE ASSIGNMENTS      1  1  1  1  1  1  2  2  2  3  3  3  4  4  4  1  1  1  1  1
TYPE ASSIGNMENTS      1  2  2  2  3  3  3  4  4  4  1  1  1  1  1  1  2  2  2  3
TYPE ASSIGNMENTS      3  3  4  4  4  1  1  1  1  1  1  2  2  2  3  3  3  4  4  4
TYPE ASSIGNMENTS      1  1  1  1  1  1  2  2  2  3  3  3  4  4  4  1  1  1  1  1
TYPE ASSIGNMENTS      1  2  2  2  3  3  3  4  4  4  1  1  1  1  1  1  2  2  2  3
TYPE ASSIGNMENTS      3  3  4  4  4  1  1  1  1  1  1  2  2  2  3  3  3  4  4  4
TYPE ASSIGNMENTS      1  1  1  1  1  1  2  2  2  3  3  3  4  4  4  1  1  1  1  1
TYPE ASSIGNMENTS      1  2  2  2  3  3  3  4  4  4  1  1  1  1  1  1  2  2  2  3
TYPE ASSIGNMENTS      3  3  4  4  4  1  1  1  1  1  1  1  1  1  1  1  1  1  1  1
TYPE ASSIGNMENTS      1  1  1  1  1  1  1  1  1  1  1  1  1  1  1  1  1  1  1  1
TYPE ASSIGNMENTS      1
EXPONENTS  0.1307093D+03 0.2380887D+02 0.6443608D+01 0.5033151D+01 0.1169596D+01
EXPONENTS  0.3803890D+00 0.5033151D+01 0.1169596D+01 0.3803890D+00 0.5033151D+01
EXPONENTS  0.1169596D+01 0.3803890D+00 0.5033151D+01 0.1169596D+01 0.3803890D+00
EXPONENTS  0.1307093D+03 0.2380887D+02 0.6443608D+01 0.5033151D+01 0.1169596D+01
EXPONENTS  0.3803890D+00 0.5033151D+01 0.1169596D+01 0.3803890D+00 0.5033151D+01
EXPONENTS  0.1169596D+01 0.3803890D+00 0.5033151D+01 0.1169596D+01 0.3803890D+00
EXPONENTS  0.9910617D+02 0.1805231D+02 0.4885660D+01 0.3780456D+01 0.8784966D+00
EXPONENTS  0.2857144D+00 0.3780456D+01 0.8784966D+00 0.2857144D+00 0.3780456D+01
EXPONENTS  0.8784966D+00 0.2857144D+00 0.3780456D+01 0.8784966D+00 0.2857144D+00
EXPONENTS  0.9910617D+02 0.1805231D+02 0.4885660D+01 0.3780456D+01 0.8784966D+00
EXPONENTS  0.2857144D+00 0.3780456D+01 0.8784966D+00 0.2857144D+00 0.3780456D+01
EXPONENTS  0.8784966D+00 0.2857144D+00 0.3780456D+01 0.8784966D+00 0.2857144D+00
EXPONENTS  0.7161684D+02 0.1304510D+02 0.3530512D+01 0.2941249D+01 0.6834831D+00
EXPONENTS  0.2222899D+00 0.2941249D+01 0.6834831D+00 0.2222899D+00 0.2941249D+01
EXPONENTS  0.6834831D+00 0.2222899D+00 0.2941249D+01 0.6834831D+00 0.2222899D+00
EXPONENTS  0.7161684D+02 0.1304510D+02 0.3530512D+01 0.2941249D+01 0.6834831D+00
EXPONENTS  0.2222899D+00 0.2941249D+01 0.6834831D+00 0.2222899D+00 0.2941249D+01
EXPONENTS  0.6834831D+00 0.2222899D+00 0.2941249D+01 0.6834831D+00 0.2222899D+00
EXPONENTS  0.7161684D+02 0.1304510D+02 0.3530512D+01 0.2941249D+01 0.6834831D+00
EXPONENTS  0.2222899D+00 0.2941249D+01 0.6834831D+00 0.2222899D+00 0.2941249D+01
EXPONENTS  0.6834831D+00 0.2222899D+00 0.2941249D+01 0.6834831D+00 0.2222899D+00
EXPONENTS  0.7161684D+02 0.1304510D+02 0.3530512D+01 0.2941249D+01 0.6834831D+00
EXPONENTS  0.2222899D+00 0.2941249D+01 0.6834831D+00 0.2222899D+00 0.2941249D+01
EXPONENTS  0.6834831D+00 0.2222899D+00 0.2941249D+01 0.6834831D+00 0.2222899D+00
EXPONENTS  0.7161684D+02 0.1304510D+02 0.3530512D+01 0.2941249D+01 0.6834831D+00
EXPONENTS  0.2222899D+00 0.2941249D+01 0.6834831D+00 0.2222899D+00 0.2941249D+01
EXPONENTS  0.6834831D+00 0.2222899D+00 0.2941249D+01 0.6834831D+00 0.2222899D+00
EXPONENTS  0.7161684D+02 0.1304510D+02 0.3530512D+01 0.2941249D+01 0.6834831D+00
EXPONENTS  0.2222899D+00 0.2941249D+01 0.6834831D+00 0.2222899D+00 0.2941249D+01
EXPONENTS  0.6834831D+00 0.2222899D+00 0.2941249D+01 0.6834831D+00 0.2222899D+00
EXPONENTS  0.7161684D+02 0.1304510D+02 0.3530512D+01 0.2941249D+01 0.6834831D+00
EXPONENTS  0.2222899D+00 0.2941249D+01 0.6834831D+00 0.2222899D+00 0.2941249D+01
EXPONENTS  0.6834831D+00 0.2222899D+00 0.2941249D+01 0.6834831D+00 0.2222899D+00
EXPONENTS  0.7161684D+02 0.1304510D+02 0.3530512D+01 0.2941249D+01 0.6834831D+00
EXPONENTS  0.2222899D+00 0.2941249D+01 0.6834831D+00 0.2222899D+00 0.2941249D+01
EXPONENTS  0.6834831D+00 0.2222899D+00 0.2941249D+01 0.6834831D+00 0.2222899D+00
EXPONENTS  0.7161684D+02 0.1304510D+02 0.3530512D+01 0.2941249D+01 0.6834831D+00
EXPONENTS  0.2222899D+00 0.2941249D+01 0.6834831D+00 0.2222899D+00 0.2941249D+01
EXPONENTS  0.6834831D+00 0.2222899D+00 0.2941249D+01 0.6834831D+00 0.2222899D+00
EXPONENTS  0.7161684D+02 0.1304510D+02 0.3530512D+01 0.2941249D+01 0.6834831D+00
EXPONENTS  0.2222899D+00 0.2941249D+01 0.6834831D+00 0.2222899D+00 0.2941249D+01
EXPONENTS  0.6834831D+00 0.2222899D+00 0.2941249D+01 0.6834831D+00 0.2222899D+00
EXPONENTS  0.7161684D+02 0.1304510D+02 0.3530512D+01 0.2941249D+01 0.6834831D+00
EXPONENTS  0.2222899D+00 0.2941249D+01 0.6834831D+00 0.2222899D+00 0.2941249D+01
EXPONENTS  0.6834831D+00 0.2222899D+00 0.2941249D+01 0.6834831D+00 0.2222899D+00
EXPONENTS  0.3425251D+01 0.6239137D+00 0.1688554D+00 0.3425251D+01 0.6239137D+00
EXPONENTS  0.1688554D+00 0.3425251D+01 0.6239137D+00 0.1688554D+00 0.3425251D+01
EXPONENTS  0.6239137D+00 0.1688554D+00 0.3425251D+01 0.6239137D+00 0.1688554D+00
EXPONENTS  0.3425251D+01 0.6239137D+00 0.1688554D+00 0.3425251D+01 0.6239137D+00
EXPONENTS  0.1688554D+00 0.3425251D+01 0.6239137D+00 0.1688554D+00 0.3425251D+01
EXPONENTS  0.6239137D+00 0.1688554D+00 0.3425251D+01 0.6239137D+00 0.1688554D+00
EXPONENTS  0.3425251D+01 0.6239137D+00 0.1688554D+00 0.3425251D+01 0.6239137D+00
EXPONENTS  0.1688554D+00
MO    1     MO 0.0        OCC NO =    2.0000000  ORB. ENERGY =  -19.413949
  0.42264991D+01  0.40876859D+01  0.12739532D+01 -0.63796855D-02  0.85333448D-02
  0.64402426D-02  0.11188240D-02  0.70354657D-03  0.11145360D-03 -0.55335373D-02
 -0.34796368D-02 -0.55123293D-03 -0.41402119D-02 -0.26034763D-02 -0.41243439D-03
  0.42501624D-02  0.41105720D-02  0.12810858D-02 -0.56971534D-04  0.76204029D-04
  0.57512318D-04 -0.55298566D-03 -0.34773223D-03 -0.55086627D-04 -0.33158976D-03
 -0.20851254D-03 -0.33031889D-04  0.83519419D-03  0.52519252D-03  0.83199319D-04
  0.58751143D-07  0.56821548D-07  0.17708795D-07  0.89489417D-07 -0.11969932D-06
 -0.90338866D-07 -0.92643930D-07 -0.58256989D-07 -0.92288858D-08  0.44169586D-06
  0.27775021D-06  0.44000299D-07  0.22152976D-06  0.13930386D-06  0.22068072D-07
  0.18383009D-04  0.17779246D-04  0.55410143D-05  0.73774866D-05 -0.98679844D-05
 -0.74475150D-05  0.21356424D-04  0.13429492D-04  0.21274572D-05  0.68729974D-04
  0.43219252D-04  0.68466556D-05 -0.19846794D-04 -0.12480197D-04 -0.19770728D-05
 -0.34169056D-05 -0.33046823D-05 -0.10299251D-05 -0.21057807D-06  0.28166518D-06
  0.21257691D-06  0.42572149D-05  0.26770510D-05  0.42408985D-06 -0.11806117D-04
 -0.74240035D-05 -0.11760869D-05 -0.76302863D-05 -0.47981288D-05 -0.76010421D-06
 -0.17384884D-04 -0.16813903D-04 -0.52401592D-05 -0.45007472D-05  0.60201130D-05
  0.45434691D-05 -0.25105481D-05 -0.15787000D-05 -0.25009261D-06 -0.21677621D-04
 -0.13631470D-04 -0.21594538D-05  0.12619285D-04  0.79353449D-05  0.12570920D-05
 -0.28073440D-06 -0.27151409D-06 -0.84619082D-07  0.12753873D-05 -0.17059336D-05
 -0.12874935D-05  0.34855941D-05  0.21918351D-05  0.34722351D-06  0.15925092D-05
  0.10014125D-05  0.15864057D-06 -0.96608385D-05 -0.60749945D-05 -0.96238120D-06
 -0.75444748D-04 -0.72966876D-04 -0.22740588D-04 -0.62042620D-04  0.82987017D-04
  0.62631540D-04 -0.11296097D-03 -0.71032886D-04 -0.11252803D-04 -0.22342628D-04
 -0.14049644D-04 -0.22256997D-05  0.29836975D-03  0.18762291D-03  0.29722621D-04
 -0.17202183D-05 -0.16637202D-05 -0.51850892D-06 -0.90065348D-06  0.12046968D-05
  0.90920264D-06  0.31534790D-05  0.19829922D-05  0.31413928D-06 -0.20339747D-05
 -0.12790179D-05 -0.20261792D-06  0.49512306D-07  0.31134667D-07  0.49322543D-08
 -0.17540325D-05 -0.16964239D-05 -0.52870122D-06 -0.11443249D-05  0.15306271D-05
  0.11551871D-05  0.24448004D-05  0.15373561D-05  0.24354304D-06 -0.38287403D-05
 -0.24076146D-05 -0.38140661D-06 -0.13215513D-05 -0.83102695D-06 -0.13164863D-06
 -0.17664728D-04 -0.17084556D-04 -0.53245098D-05 -0.38728169D-05  0.51802055D-05
  0.39095783D-05  0.21539332D-04  0.13544510D-04  0.21456780D-05 -0.14366822D-05
 -0.90342432D-06 -0.14311759D-06  0.35357010D-04  0.22233437D-04  0.35221499D-05
  0.58010236D-07  0.56104975D-07  0.17485470D-07  0.59196384D-07 -0.79179946D-07
 -0.59758287D-07 -0.22902697D-06 -0.14401830D-06 -0.22814919D-07  0.88821675D-07
  0.55853453D-07  0.88481253D-08  0.10500139D-06  0.66027689D-07  0.10459895D-07
  0.14662590D-02  0.14181019D-02  0.44196041D-03  0.72902667D-03 -0.97513206D-03
 -0.73594671D-03  0.19569112D-02  0.12305583D-02  0.19494111D-03 -0.49696796D-03
 -0.31250679D-03 -0.49506326D-04 -0.35276195D-02 -0.22182618D-02 -0.35140994D-03
 -0.72260889D-06 -0.69887586D-06 -0.21780908D-06 -0.12975246D-06  0.17355440D-06
  0.13098410D-06 -0.70308499D-06 -0.44211871D-06 -0.70039031D-07  0.84198641D-06
  0.52946365D-06  0.83875938D-07 -0.61621316D-06 -0.38749137D-06 -0.61385144D-07
  0.52804755D-07  0.51070460D-07  0.15916432D-07  0.52258697D-07 -0.69900229D-07
 -0.52754746D-07 -0.13727604D-06 -0.86322858D-07 -0.13674991D-07  0.14676264D-06
  0.92288289D-07  0.14620015D-07  0.41277353D-06  0.25956307D-06  0.41119151D-07
 -0.74472717D-05 -0.72026770D-05 -0.22447598D-05  0.33581742D-05  0.32478799D-05
  0.10122223D-05 -0.81654713D-04 -0.78972883D-04 -0.24612398D-04  0.18400101D-06
  0.17795777D-06  0.55461663D-07  0.10731943D-07  0.10379468D-07  0.32348268D-08
  0.87807118D-05  0.84923222D-05  0.26466859D-05  0.48792071D-08  0.47189567D-08
  0.14706927D-08  0.22492870D-06  0.21754124D-06  0.67798103D-07  0.64218257D-05
  0.62109102D-05  0.19356694D-05 -0.18461971D-05 -0.17855614D-05 -0.55648151D-06
  0.82781716D-08  0.80062872D-08  0.24952100D-08 -0.16175156D-02 -0.15643906D-02
 -0.48755223D-03
MO    2     MO 0.0        OCC NO =    2.0000000  ORB. ENERGY =  -19.365853
 -0.45805180D-02 -0.44300776D-02 -0.13806617D-02 -0.62934976D-04  0.84180615D-04
  0.63532366D-04 -0.44221859D-04 -0.27807892D-04 -0.44052372D-05 -0.85736288D-03
 -0.53913279D-03 -0.85407691D-04 -0.19876890D-03 -0.12499122D-03 -0.19800709D-04
  0.42267600D+01  0.40879382D+01  0.12740318D+01 -0.64201100D-02  0.85874158D-02
  0.64810508D-02 -0.11147413D-02 -0.70097924D-03 -0.11104689D-03  0.84734085D-02
  0.53283067D-02  0.84409330D-03  0.45301355D-02  0.28486707D-02  0.45127731D-03
 -0.23235646D-06 -0.22472506D-06 -0.70036984D-07 -0.14209895D-06  0.19006882D-06
  0.14344777D-06  0.23832442D-06  0.14986479D-06  0.23741101D-07  0.87616417D-08
  0.55095554D-08  0.87280615D-09  0.34020534D-06  0.21393025D-06  0.33890145D-07
 -0.50577301D-05 -0.48916163D-05 -0.15245031D-05  0.72683747D-05 -0.97220383D-05
 -0.73373673D-05  0.33328823D-04  0.20958058D-04  0.33201085D-05 -0.84061215D-04
 -0.52859948D-04 -0.83739039D-05  0.26607938D-04  0.16731785D-04  0.26505959D-05
  0.28801950D-05  0.27855992D-05  0.86814960D-06  0.35211816D-05 -0.47098649D-05
 -0.35546053D-05 -0.68064393D-05 -0.42800717D-05 -0.67803527D-06 -0.67076584D-05
 -0.42179556D-05 -0.66819504D-06 -0.99803159D-06 -0.62758905D-06 -0.99420649D-07
 -0.29487377D-04 -0.28518907D-04 -0.88880978D-05 -0.59093128D-05  0.79041833D-05
  0.59654051D-05 -0.35754111D-04 -0.22483144D-04 -0.35617078D-05 -0.57572233D-04
 -0.36202965D-04 -0.57351579D-05  0.23937617D-04  0.15052616D-04  0.23845873D-05
 -0.85072238D-05 -0.82278165D-05 -0.25642510D-05 -0.14470676D-05  0.19355698D-05
  0.14608034D-05  0.16940717D-04  0.10652777D-04  0.16875789D-05 -0.95487360D-05
 -0.60045014D-05 -0.95121391D-06  0.81052402D-05  0.50967925D-05  0.80741757D-06
 -0.40928671D-04 -0.39584429D-04 -0.12336737D-04 -0.12994996D-04  0.17381858D-04
  0.13118347D-04  0.14976031D-03  0.94173302D-04  0.14918633D-04 -0.21947033D-03
 -0.13800883D-03 -0.21862918D-04 -0.29478424D-03 -0.18536824D-03 -0.29365444D-04
 -0.10674938D-05 -0.10324335D-05 -0.32176444D-06 -0.78200496D-06  0.10459948D-05
  0.78942789D-06  0.68977863D-06  0.43375131D-06  0.68713495D-07 -0.17321964D-05
 -0.10892516D-05 -0.17255576D-06 -0.43268301D-05 -0.27208269D-05 -0.43102469D-06
 -0.14143269D-05 -0.13678754D-05 -0.42630702D-06 -0.10481336D-05  0.14019634D-05
  0.10580827D-05  0.33021410D-05  0.20764749D-05  0.32894851D-06 -0.22095217D-05
 -0.13894066D-05 -0.22010534D-06 -0.28791139D-05 -0.18104641D-05 -0.28680793D-06
 -0.45668243D-04 -0.44168336D-04 -0.13765341D-04 -0.21636417D-04  0.28940456D-04
  0.21841794D-04  0.87343327D-04  0.54923828D-04  0.87008571D-05 -0.34659227D-04
 -0.21794652D-04 -0.34526390D-05 -0.32032154D-04 -0.20142678D-04 -0.31909386D-05
 -0.10523614D-06 -0.10177981D-06 -0.31720321D-07  0.79389377D-07 -0.10618971D-06
 -0.80142955D-07  0.35654786D-06  0.22420686D-06  0.35518134D-07 -0.19911674D-06
 -0.12520995D-06 -0.19835360D-07  0.20498230D-06  0.12889837D-06  0.20419667D-07
  0.16364984D-02  0.15827500D-02  0.49327404D-03  0.11914921D-02 -0.15937169D-02
 -0.12028019D-02 -0.62964041D-03 -0.39593479D-03 -0.62722722D-04  0.52037381D-02
  0.32722502D-02  0.51837940D-03  0.26988180D-02  0.16970892D-02  0.26884744D-03
  0.40249604D-06  0.38927665D-06  0.12132053D-06 -0.10307685D-06  0.13787361D-06
  0.10405527D-06 -0.22492026D-05 -0.14143590D-05 -0.22405822D-06  0.69491605D-05
  0.43698186D-05  0.69225269D-06  0.15449018D-05  0.97147571D-06  0.15389807D-06
 -0.20728043D-06 -0.20047260D-06 -0.62478554D-07  0.99903181D-07 -0.13362858D-06
 -0.10085148D-06  0.22572925D-06  0.14194461D-06  0.22486411D-07  0.99968864D-06
  0.62863104D-06  0.99585719D-07  0.26944257D-06  0.16943272D-06  0.26840989D-07
 -0.34083614D-05 -0.32964188D-05 -0.10273498D-05  0.66760865D-05  0.64568203D-05
  0.20123088D-05  0.38055478D-05  0.36805601D-05  0.11470698D-05 -0.10592679D-06
 -0.10244778D-06 -0.31928498D-07 -0.24171502D-08 -0.23377624D-08 -0.72857844D-09
 -0.70142335D-04 -0.67838612D-04 -0.21142332D-04  0.72297382D-07  0.69922880D-07
  0.21791908D-07  0.16660242D-05  0.16113061D-05  0.50217373D-06  0.36466097D-05
  0.35268421D-05  0.10991626D-05  0.47739371D-05  0.46171441D-05  0.14389622D-05
  0.87450248D-07  0.84578072D-07  0.26359291D-07 -0.36717829D-04 -0.35511885D-04
 -0.11067504D-04
MO    3     MO 0.0        OCC NO =    2.0000000  ORB. ENERGY =  -14.635431
  0.10950688D-07  0.10591029D-07  0.33007610D-08  0.43099232D-07 -0.57648704D-07
 -0.43508337D-07 -0.39732960D-06 -0.24985152D-06 -0.39580678D-07  0.11178623D-05
  0.70294181D-06  0.11135779D-06  0.73840132D-07  0.46432657D-07  0.73557129D-08
 -0.38250834D-06 -0.36994542D-06 -0.11529583D-06 -0.11303716D-06  0.15119633D-06
  0.11411012D-06 -0.38752865D-06 -0.24368842D-06 -0.38604339D-07  0.33441454D-06
  0.21028884D-06  0.33313285D-07 -0.19231635D-06 -0.12093368D-06 -0.19157927D-07
  0.34305318D+01  0.33178610D+01  0.10340324D+01 -0.65710530D-02  0.87893142D-02
  0.66334265D-02  0.75340528D-03  0.47376146D-03  0.75051775D-04 -0.88928978D-03
 -0.55920928D-03 -0.88588145D-04 -0.61407843D-03 -0.38614900D-03 -0.61172489D-04
 -0.45193359D-05 -0.43709050D-05 -0.13622202D-05  0.24348988D-06 -0.32568738D-06
 -0.24580113D-06 -0.27091268D-07 -0.17035716D-07 -0.26987437D-08 -0.47001748D-06
 -0.29555960D-06 -0.46821607D-07 -0.11909242D-06 -0.74888510D-07 -0.11863598D-07
 -0.12305033D-04 -0.11900893D-04 -0.37089884D-05 -0.70227772D-04  0.93935318D-04
  0.70894386D-04 -0.28571191D-03 -0.17966332D-03 -0.28461688D-04  0.10147524D-03
  0.63810355D-04  0.10108632D-04  0.13392530D-03  0.84215821D-04  0.13341201D-04
  0.71955061D-05  0.69591802D-05  0.21688725D-05 -0.97398767D-06  0.13027872D-05
  0.98323293D-06 -0.15267528D-06 -0.96006311D-07 -0.15209013D-07 -0.40017689D-04
 -0.25164197D-04 -0.39864316D-05 -0.23013952D-04 -0.14471791D-04 -0.22925748D-05
 -0.67559215D-05 -0.65340331D-05 -0.20363727D-05 -0.63912220D-04  0.85487757D-04
  0.64518885D-04 -0.14210827D-03 -0.89361496D-04 -0.14156362D-04  0.19416157D-03
  0.12209401D-03  0.19341742D-04  0.11255309D-03  0.70776405D-04  0.11212172D-04
 -0.83377458D-06 -0.80639047D-06 -0.25131669D-06 -0.74058042D-06  0.99058614D-06
  0.74761014D-06  0.60975213D-06  0.38342850D-06  0.60741516D-07  0.39873534D-05
  0.25073548D-05  0.39720713D-06  0.10389882D-05  0.65334366D-06  0.10350061D-06
  0.14363647D-02  0.13891894D-02  0.43294966D-03  0.10075914D-02 -0.13477349D-02
 -0.10171556D-02 -0.10673663D-02 -0.67118860D-03 -0.10632755D-03 -0.42796968D-02
 -0.26911882D-02 -0.42632942D-03 -0.10183400D-02 -0.64035951D-03 -0.10144371D-03
  0.14513819D-02  0.14037134D-02  0.43747615D-03  0.10118955D-02 -0.13534920D-02
 -0.10215006D-02  0.41838139D-02  0.26308944D-02  0.41677788D-03  0.79181785D-03
  0.49791631D-03  0.78878309D-04 -0.12061137D-02 -0.75843665D-03 -0.12014911D-03
  0.17067839D-04  0.16507271D-04  0.51445953D-05  0.63118274D-05 -0.84425790D-05
 -0.63717403D-05  0.58178405D-04  0.36584142D-04  0.57955428D-05 -0.26858318D-04
 -0.16889231D-04 -0.26755380D-05 -0.29330249D-04 -0.18443647D-04 -0.29217836D-05
 -0.50577388D-04 -0.48916247D-04 -0.15245058D-04 -0.24182642D-04  0.32346237D-04
  0.24412187D-04 -0.10793257D-03 -0.67870897D-04 -0.10751890D-04  0.35203275D-03
  0.22136764D-03  0.35068354D-04  0.15129428D-03  0.95137903D-04  0.15071442D-04
  0.41360859D-07  0.40002422D-07  0.12467008D-07 -0.34632985D-07  0.46324415D-07
  0.34961727D-07  0.11030180D-06  0.69360733D-07  0.10987905D-07  0.36101320D-06
  0.22701479D-06  0.35962957D-07  0.31157452D-06  0.19592642D-06  0.31038037D-07
  0.85134731D-05  0.82338605D-05  0.25661347D-05 -0.12633319D-05  0.16898084D-05
  0.12753236D-05 -0.12034551D-05 -0.75676487D-06 -0.11988427D-06 -0.33115334D-04
 -0.20823811D-04 -0.32988415D-05 -0.10627666D-04 -0.66829613D-05 -0.10586933D-05
  0.78308288D-05  0.75736367D-05  0.23603718D-05 -0.68925265D-05  0.92193111D-05
  0.69579516D-05 -0.49265156D-04 -0.30979252D-04 -0.49076340D-05  0.15780037D-04
  0.99229105D-05  0.15719557D-05  0.22410725D-04  0.14092466D-04  0.22324833D-05
 -0.38319411D-05 -0.37060866D-05 -0.11550253D-05 -0.91972721D-05 -0.88952012D-05
 -0.27722457D-05 -0.19815854D-05 -0.19165031D-05 -0.59729031D-06  0.68902328D-04
  0.66639332D-04  0.20768569D-04 -0.19124192D-02 -0.18496086D-02 -0.57644222D-03
 -0.53592301D-05 -0.51832141D-05 -0.16153814D-05 -0.25939829D-04 -0.25087873D-04
 -0.78187942D-05 -0.44134128D-05 -0.42684608D-05 -0.13302928D-05  0.37687521D-07
  0.36449730D-07  0.11359789D-07  0.59331933D-06  0.57383262D-06  0.17883856D-06
 -0.54551937D-05 -0.52760259D-05 -0.16443068D-05  0.21082718D-06  0.20390287D-06
  0.63547619D-07
MO    4     MO 0.0        OCC NO =    2.0000000  ORB. ENERGY =  -14.545208
  0.39154451D-04  0.37868480D-04  0.11801951D-04  0.12558037D-04 -0.16797388D-04
 -0.12677240D-04 -0.22222465D-04 -0.13974083D-04 -0.22137295D-05 -0.76928799D-04
 -0.48374893D-04 -0.76633958D-05  0.51183254D-04  0.32185403D-04  0.50987086D-05
 -0.16276787D-04 -0.15742200D-04 -0.49061562D-05 -0.42809652D-05  0.57261368D-05
  0.43216009D-05 -0.41902997D-04 -0.26349729D-04 -0.41742398D-05  0.20439820D-04
  0.12853107D-04  0.20361481D-05  0.76863052D-05  0.48333550D-05  0.76568464D-06
  0.53068740D-05  0.51325775D-05  0.15996002D-05  0.23260880D-06 -0.31113306D-06
 -0.23481676D-06 -0.10245639D-05 -0.64427327D-06 -0.10206371D-06  0.44377699D-06
  0.27905888D-06  0.44207615D-07  0.91190416D-06  0.57342981D-06  0.90840916D-07
  0.34310634D+01  0.33183751D+01  0.10341926D+01 -0.62872041D-02  0.84096434D-02
  0.63468833D-02  0.25734124D-03  0.16182308D-03  0.25635495D-04  0.39607359D-02
  0.24906170D-02  0.39455558D-03  0.48125381D-02  0.30262531D-02  0.47940933D-03
  0.34611443D-04  0.33474681D-04  0.10432596D-04  0.14513513D-04 -0.19412996D-04
 -0.14651277D-04 -0.65384365D-04 -0.41115443D-04 -0.65133770D-05  0.23285564D-04
  0.14642587D-04  0.23196318D-05 -0.54791505D-04 -0.34454368D-04 -0.54581508D-05
 -0.16227320D-04 -0.15694357D-04 -0.48912456D-05 -0.45396745D-04  0.60721814D-04
  0.45827659D-04  0.14343905D-03  0.90198326D-04  0.14288930D-04 -0.76171033D-04
 -0.47898390D-04 -0.75879097D-05  0.50655512D-04  0.31853545D-04  0.50461367D-05
 -0.65028815D-06 -0.62893039D-06 -0.19601013D-06 -0.82490529D-06  0.11033775D-05
  0.83273544D-06  0.53970381D-05  0.33938024D-05  0.53763532D-06  0.89224866D-06
  0.56106990D-06  0.88882899D-07  0.36067924D-05  0.22680478D-05  0.35929688D-06
  0.14646120D-02  0.14165090D-02  0.44146398D-03  0.86267623D-03 -0.11538992D-02
 -0.87086490D-03 -0.36897715D-02 -0.23202273D-02 -0.36756299D-03  0.40644403D-03
  0.25558291D-03  0.40488627D-04  0.15979216D-02  0.10048160D-02  0.15917973D-03
  0.47386479D-07  0.45830139D-07  0.14283253D-07  0.45972759D-07 -0.61492279D-07
 -0.46409140D-07 -0.23052539D-06 -0.14496055D-06 -0.22964187D-07 -0.64929402D-06
 -0.40829350D-06 -0.64680550D-07  0.71516482D-06  0.44971483D-06  0.71242385D-07
 -0.15751091D-06 -0.15233770D-06 -0.47477006D-07 -0.12836870D-05  0.17170350D-05
  0.12958719D-05  0.27011543D-05  0.16985583D-05  0.26908018D-06 -0.57403330D-05
 -0.36096755D-05 -0.57183324D-06  0.38930086D-05  0.24480282D-05  0.38780880D-06
  0.44352825D-06  0.42896121D-06  0.13368847D-06  0.38954618D-06 -0.52104949D-06
 -0.39324382D-06 -0.15853328D-05 -0.99689980D-06 -0.15792568D-06  0.17008786D-05
  0.10695581D-05  0.16943597D-06 -0.38242644D-07 -0.24048001D-07 -0.38096073D-08
  0.17493492D-07  0.16918944D-07  0.52728957D-08  0.21371128D-07 -0.28585610D-07
 -0.21573987D-07 -0.12415351D-06 -0.78071057D-07 -0.12367767D-07 -0.21340863D-07
 -0.13419707D-07 -0.21259071D-08 -0.16563219D-06 -0.10415397D-06 -0.16499738D-07
 -0.73189439D-05 -0.70785639D-05 -0.22060792D-05 -0.40805057D-04  0.54580060D-04
  0.41192385D-04  0.15774284D-03  0.99192931D-04  0.15713827D-04  0.11753402D-03
  0.73908543D-04  0.11708355D-04 -0.88423711D-05 -0.55603202D-05 -0.88084814D-06
 -0.57529312D-07 -0.55639846D-07 -0.17340510D-07 -0.40230594D-07  0.53811670D-07
  0.40612470D-07  0.18933690D-06  0.11906012D-06  0.18861124D-07 -0.31312203D-07
 -0.19689953D-07 -0.31192194D-08  0.32514912D-07  0.20446249D-07  0.32390293D-08
 -0.16456842D-08 -0.15916341D-08 -0.49604283D-09 -0.32769290D-09  0.43831573D-09
  0.33080342D-09  0.20764976D-07  0.13057574D-07  0.20685391D-08 -0.13676053D-07
 -0.85998692D-08 -0.13623638D-08 -0.12190857D-07 -0.76659379D-08 -0.12144134D-08
 -0.34753692D-04 -0.33612258D-04 -0.10475473D-04  0.38639060D-04  0.37370016D-04
  0.11646602D-04  0.11151019D-03  0.10784780D-03  0.33611448D-04 -0.10723706D-05
 -0.10371502D-05 -0.32323441D-06 -0.23368020D-07 -0.22600532D-07 -0.70435987D-08
  0.19257913D-05  0.18625415D-05  0.58047284D-06  0.66685007D-08  0.64494836D-08
  0.20100223D-08 -0.38932475D-07 -0.37653794D-07 -0.11735043D-07 -0.19651222D-02
 -0.19005806D-02 -0.59232796D-03 -0.19657045D-02 -0.19011439D-02 -0.59250350D-03
  0.23105947D-08  0.22347066D-08  0.69646042D-09 -0.10731351D-05 -0.10378895D-05
 -0.32346483D-06
MO    5     MO 0.0        OCC NO =    2.0000000  ORB. ENERGY =  -10.472358
  0.21783825D-02  0.21068367D-02  0.65660898D-03  0.11751701D-02 -0.15718850D-02
 -0.11863250D-02 -0.28825505D-02 -0.18126251D-02 -0.28715027D-03  0.18021529D-04
  0.11332421D-04  0.17952459D-05  0.48781476D-02  0.30675101D-02  0.48594514D-03
  0.16434850D-02  0.15895072D-02  0.49537996D-03  0.16110915D-02 -0.21549650D-02
 -0.16263842D-02  0.51758675D-03  0.32547244D-03  0.51560302D-04 -0.37620870D-02
 -0.23657012D-02 -0.37476682D-03 -0.20648107D-02 -0.12984084D-02 -0.20568970D-03
  0.22666836D-06  0.21922377D-06  0.68322473D-07  0.22460172D-08 -0.30042295D-08
 -0.22673368D-08 -0.10260399D-05 -0.64520141D-06 -0.10221074D-06 -0.61063352D-06
 -0.38398274D-06 -0.60829318D-07 -0.49989392D-05 -0.31434671D-05 -0.49797800D-06
  0.18578782D-04  0.17968589D-04  0.56000245D-05 -0.62983463D-04  0.84245470D-04
  0.63581313D-04  0.73297168D-05  0.46091226D-05  0.73016246D-06  0.29360650D-03
  0.18462765D-03  0.29248121D-04  0.91762379D-04  0.57702646D-04  0.91410687D-05
 -0.59040689D-03 -0.57101584D-03 -0.17796070D-03  0.11095775D-04 -0.14841496D-04
 -0.11201098D-04 -0.68995788D-04 -0.43386403D-04 -0.68731352D-05  0.16848416D-03
  0.10594736D-03  0.16783842D-04 -0.90783306D-04 -0.57086979D-04 -0.90435366D-05
 -0.13086185D-02 -0.12656388D-02 -0.39444433D-03 -0.23763685D-04  0.31785848D-04
  0.23989254D-04  0.13785219D-03  0.86685154D-04  0.13732385D-04  0.21814211D-03
  0.13717361D-03  0.21730605D-04 -0.95747487D-04 -0.60208589D-04 -0.95380521D-05
 -0.49274741D-03 -0.47656384D-03 -0.14852413D-03  0.58025444D-05 -0.77613719D-05
 -0.58576232D-05 -0.13586494D-03 -0.85435518D-04 -0.13534421D-04  0.68747017D-04
  0.43229969D-04  0.68483534D-05 -0.53724194D-04 -0.33783215D-04 -0.53518288D-05
 -0.18359406D-01 -0.17756418D-01 -0.55338999D-02  0.98685135D-03 -0.13199934D-02
 -0.99621871D-03  0.11966514D-02  0.75248653D-03  0.11920651D-03  0.36554181D-02
  0.22986250D-02  0.36414082D-03 -0.11188168D-02 -0.70354203D-03 -0.11145288D-03
 -0.20385653D-04 -0.19716116D-04 -0.61446523D-05  0.51818153D-05 -0.69310966D-05
 -0.52310020D-05 -0.65193122D-05 -0.40995185D-05 -0.64943260D-06  0.20934525D-05
  0.13164191D-05  0.20854290D-06  0.31106875D-04  0.19560837D-04  0.30987653D-05
  0.33623889D-05  0.32519561D-05  0.10134927D-05  0.52426914D-05 -0.70125232D-05
 -0.52924559D-05 -0.10589618D-05 -0.66590363D-06 -0.10549032D-06  0.30333885D-05
  0.19074761D-05  0.30217626D-06  0.37919804D-04  0.23844990D-04  0.37774471D-05
 -0.28346609D-03 -0.27415606D-03 -0.85442469D-04 -0.16014982D-04  0.21421332D-04
  0.16166999D-04 -0.76553498D-04 -0.48138894D-04 -0.76260096D-05 -0.69317516D-04
 -0.43588714D-04 -0.69051847D-05 -0.15822068D-03 -0.99493407D-04 -0.15761427D-04
  0.43211902D-06  0.41792670D-06  0.13024950D-06 -0.70491441D-07  0.94287997D-07
  0.71160558D-07  0.50440290D-06  0.31718208D-06  0.50246971D-07  0.10861749D-06
  0.68301590D-07  0.10820119D-07 -0.20584802D-05 -0.12944276D-05 -0.20505907D-06
  0.26861649D+01  0.25979418D+01  0.80966498D+00 -0.55200506D-02  0.73835136D-02
  0.55724478D-02 -0.65673447D-04 -0.41297226D-04 -0.65421744D-05 -0.51473629D-03
 -0.32367999D-03 -0.51276349D-04 -0.18071164D-03 -0.11363633D-03 -0.18001903D-04
 -0.50008682D-05 -0.48366220D-05 -0.15073638D-05  0.62715250D-05 -0.83886713D-05
 -0.63310554D-05 -0.92666516D-05 -0.58271192D-05 -0.92311358D-06 -0.17896043D-04
 -0.11253512D-04 -0.17827454D-05  0.30059560D-04  0.18902258D-04  0.29944353D-05
  0.18981221D-05  0.18357811D-05  0.57213277D-06 -0.17556806D-06  0.23483646D-06
  0.17723458D-06  0.95210121D-06  0.59870679D-06  0.94845214D-07  0.18913641D-05
  0.11893405D-05  0.18841152D-06 -0.16377993D-05 -0.10298921D-05 -0.16315222D-06
 -0.54818320D-04 -0.53017893D-04 -0.16523361D-04 -0.54161374D-04 -0.52382523D-04
 -0.16325344D-04 -0.59881368D-05 -0.57914652D-05 -0.18049467D-05  0.68525239D-06
  0.66274628D-06  0.20654907D-06  0.47915564D-07  0.46341847D-07  0.14442730D-07
 -0.12474169D-03 -0.12064473D-03 -0.37599694D-04  0.67873518D-07  0.65644312D-07
  0.20458465D-07  0.25568591D-05  0.24728829D-05  0.77068957D-06 -0.93540986D-04
 -0.90468770D-04 -0.28195164D-04 -0.44800621D-04 -0.43329210D-04 -0.13503822D-04