 opt tryptophan pbe0
GAUSSIAN             87 MOL ORBITALS    261 PRIMITIVES       27 NUCLEI
  O    1    (CENTRE  1)   6.14413561 -2.57573499  2.23574084  CHARGE =  8.0
  O    2    (CENTRE  2)   3.65968405 -3.32937666 -1.28883551  CHARGE =  8.0
  N    3    (CENTRE  3)  -4.05378020  3.80243404  0.76552745  CHARGE =  7.0
  N    4    (CENTRE  4)   6.82429435  2.20099317 -0.19223057  CHARGE =  7.0
  C    5    (CENTRE  5)  -0.36751253  2.21885255 -0.74904563  CHARGE =  6.0
  C    6    (CENTRE  6)   2.33359180  2.05146901 -1.69230659  CHARGE =  6.0
  C    7    (CENTRE  7)  -2.17125895  0.16605185 -0.49329810  CHARGE =  6.0
  C    8    (CENTRE  8)   4.24759987  1.11238423  0.33884846  CHARGE =  6.0
  C    9    (CENTRE  9)  -4.46144731  1.20984730  0.44302277  CHARGE =  6.0
  C   10    (CENTRE 10)  -1.57588390  4.37430347  0.02078774  CHARGE =  6.0
  C   11    (CENTRE 11)  -2.05816594 -2.45282683 -0.98970949  CHARGE =  6.0
  C   12    (CENTRE 12)  -6.62393986 -0.27280047  0.89224283  CHARGE =  6.0
  C   13    (CENTRE 13)   4.55458026 -1.81236032  0.25642390  CHARGE =  6.0
  C   14    (CENTRE 14)  -4.18562537 -3.91629638 -0.55009601  CHARGE =  6.0
  C   15    (CENTRE 15)  -6.44837791 -2.83551216  0.37992875  CHARGE =  6.0
  H   16    (CENTRE 16)   2.44547377  0.76971878 -3.31993122  CHARGE =  1.0
  H   17    (CENTRE 17)   2.95238344  3.92635306 -2.32546184  CHARGE =  1.0
  H   18    (CENTRE 18)   3.54821393  1.61493893  2.24591421  CHARGE =  1.0
  H   19    (CENTRE 19)  -0.89709154  6.31660786  0.10290303  CHARGE =  1.0
  H   20    (CENTRE 20)  -5.38431698  5.09885330  1.36045396  CHARGE =  1.0
  H   21    (CENTRE 21)  -0.29415273 -3.28397048 -1.67785648  CHARGE =  1.0
  H   22    (CENTRE 22)  -8.36441154  0.56659214  1.61064866  CHARGE =  1.0
  H   23    (CENTRE 23)  -4.12903998 -5.94387620 -0.92173040  CHARGE =  1.0
  H   24    (CENTRE 24)   7.97503787  1.48228910  1.25737499  CHARGE =  1.0
  H   25    (CENTRE 25)   6.67141103  4.12393767  0.27400459  CHARGE =  1.0
  H   26    (CENTRE 26)  -8.08566218 -4.04884100  0.70152467  CHARGE =  1.0
  H   27    (CENTRE 27)   6.27663759 -4.46437399  1.96304321  CHARGE =  1.0
CENTRE ASSIGNMENTS    1  1  1  1  1  1  1  1  1  1  1  1  1  1  1  2  2  2  2  2
CENTRE ASSIGNMENTS    2  2  2  2  2  2  2  2  2  2  3  3  3  3  3  3  3  3  3  3
CENTRE ASSIGNMENTS    3  3  3  3  3  4  4  4  4  4  4  4  4  4  4  4  4  4  4  4
CENTRE ASSIGNMENTS    5  5  5  5  5  5  5  5  5  5  5  5  5  5  5  6  6  6  6  6
CENTRE ASSIGNMENTS    6  6  6  6  6  6  6  6  6  6  7  7  7  7  7  7  7  7  7  7
CENTRE ASSIGNMENTS    7  7  7  7  7  8  8  8  8  8  8  8  8  8  8  8  8  8  8  8
CENTRE ASSIGNMENTS    9  9  9  9  9  9  9  9  9  9  9  9  9  9  9 10 10 10 10 10
CENTRE ASSIGNMENTS   10 10 10 10 10 10 10 10 10 10 11 11 11 11 11 11 11 11 11 11
CENTRE ASSIGNMENTS   11 11 11 11 11 12 12 12 12 12 12 12 12 12 12 12 12 12 12 12
CENTRE ASSIGNMENTS   13 13 13 13 13 13 13 13 13 13 13 13 13 13 13 14 14 14 14 14
CENTRE ASSIGNMENTS   14 14 14 14 14 14 14 14 14 14 15 15 15 15 15 15 15 15 15 15
CENTRE ASSIGNMENTS   15 15 15 15 15 16 16 16 17 17 17 18 18 18 19 19 19 20 20 20
CENTRE ASSIGNMENTS   21 21 21 22 22 22 23 23 23 24 24 24 25 25 25 26 26 26 27 27
CENTRE ASSIGNMENTS   27
TYPE ASSIGNMENTS      1  1  1  1  1  1  2  2  2  3  3  3  4  4  4  1  1  1  1  1
TYPE ASSIGNMENTS      1  2  2  2  3  3  3  4  4  4  1  1  1  1  1  1  2  2  2  3
TYPE ASSIGNMENTS      3  3  4  4  4  1  1  1  1  1  1  2  2  2  3  3  3  4  4  4
TYPE ASSIGNMENTS      1  1  1  1  1  1  2  2  2  3  3  3  4  4  4  1  1  1  1  1
TYPE ASSIGNMENTS      1  2  2  2  3  3  3  4  4  4  1  1  1  1  1  1  2  2  2  3
TYPE ASSIGNMENTS      3  3  4  4  4  1  1  1  1  1  1  2  2  2  3  3  3  4  4  4
TYPE ASSIGNMENTS      1  1  1  1  1  1  2  2  2  3  3  3  4  4  4  1  1  1  1  1
TYPE ASSIGNMENTS      1  2  2  2  3  3  3  4  4  4  1  1  1  1  1  1  2  2  2  3
TYPE ASSIGNMENTS      3  3  4  4  4  1  1  1  1  1  1  2  2  2  3  3  3  4  4  4
TYPE ASSIGNMENTS      1  1  1  1  1  1  2  2  2  3  3  3  4  4  4  1  1  1  1  1
TYPE ASSIGNMENTS      1  2  2  2  3  3  3  4  4  4  1  1  1  1  1  1  2  2  2  3
TYPE ASSIGNMENTS      3  3  4  4  4  1  1  1  1  1  1  1  1  1  1  1  1  1  1  1
TYPE ASSIGNMENTS      1  1  1  1  1  1  1  1  1  1  1  1  1  1  1  1  1  1  1  1
TYPE ASSIGNMENTS      1
EXPONENTS  0.1307093D+03 0.2380887D+02 0.6443608D+01 0.5033151D+01 0.1169596D+01
EXPONENTS  0.3803890D+00 0.5033151D+01 0.1169596D+01 0.3803890D+00 0.5033151D+01
EXPONENTS  0.1169596D+01 0.3803890D+00 0.5033151D+01 0.1169596D+01 0.3803890D+00
EXPONENTS  0.1307093D+03 0.2380887D+02 0.6443608D+01 0.5033151D+01 0.1169596D+01
EXPONENTS  0.3803890D+00 0.5033151D+01 0.1169596D+01 0.3803890D+00 0.5033151D+01
EXPONENTS  0.1169596D+01 0.3803890D+00 0.5033151D+01 0.1169596D+01 0.3803890D+00
EXPONENTS  0.9910617D+02 0.1805231D+02 0.4885660D+01 0.3780456D+01 0.8784966D+00
EXPONENTS  0.2857144D+00 0.3780456D+01 0.8784966D+00 0.2857144D+00 0.3780456D+01
EXPONENTS  0.8784966D+00 0.2857144D+00 0.3780456D+01 0.8784966D+00 0.2857144D+00
EXPONENTS  0.9910617D+02 0.1805231D+02 0.4885660D+01 0.3780456D+01 0.8784966D+00
EXPONENTS  0.2857144D+00 0.3780456D+01 0.8784966D+00 0.2857144D+00 0.3780456D+01
EXPONENTS  0.8784966D+00 0.2857144D+00 0.3780456D+01 0.8784966D+00 0.2857144D+00
EXPONENTS  0.7161684D+02 0.1304510D+02 0.3530512D+01 0.2941249D+01 0.6834831D+00
EXPONENTS  0.2222899D+00 0.2941249D+01 0.6834831D+00 0.2222899D+00 0.2941249D+01
EXPONENTS  0.6834831D+00 0.2222899D+00 0.2941249D+01 0.6834831D+00 0.2222899D+00
EXPONENTS  0.7161684D+02 0.1304510D+02 0.3530512D+01 0.2941249D+01 0.6834831D+00
EXPONENTS  0.2222899D+00 0.2941249D+01 0.6834831D+00 0.2222899D+00 0.2941249D+01
EXPONENTS  0.6834831D+00 0.2222899D+00 0.2941249D+01 0.6834831D+00 0.2222899D+00
EXPONENTS  0.7161684D+02 0.1304510D+02 0.3530512D+01 0.2941249D+01 0.6834831D+00
EXPONENTS  0.2222899D+00 0.2941249D+01 0.6834831D+00 0.2222899D+00 0.2941249D+01
EXPONENTS  0.6834831D+00 0.2222899D+00 0.2941249D+01 0.6834831D+00 0.2222899D+00
EXPONENTS  0.7161684D+02 0.1304510D+02 0.3530512D+01 0.2941249D+01 0.6834831D+00
EXPONENTS  0.2222899D+00 0.2941249D+01 0.6834831D+00 0.2222899D+00 0.2941249D+01
EXPONENTS  0.6834831D+00 0.2222899D+00 0.2941249D+01 0.6834831D+00 0.2222899D+00
EXPONENTS  0.7161684D+02 0.1304510D+02 0.3530512D+01 0.2941249D+01 0.6834831D+00
EXPONENTS  0.2222899D+00 0.2941249D+01 0.6834831D+00 0.2222899D+00 0.2941249D+01
EXPONENTS  0.6834831D+00 0.2222899D+00 0.2941249D+01 0.6834831D+00 0.2222899D+00
EXPONENTS  0.7161684D+02 0.1304510D+02 0.3530512D+01 0.2941249D+01 0.6834831D+00
EXPONENTS  0.2222899D+00 0.2941249D+01 0.6834831D+00 0.2222899D+00 0.2941249D+01
EXPONENTS  0.6834831D+00 0.2222899D+00 0.2941249D+01 0.6834831D+00 0.2222899D+00
EXPONENTS  0.7161684D+02 0.1304510D+02 0.3530512D+01 0.2941249D+01 0.6834831D+00
EXPONENTS  0.2222899D+00 0.2941249D+01 0.6834831D+00 0.2222899D+00 0.2941249D+01
EXPONENTS  0.6834831D+00 0.2222899D+00 0.2941249D+01 0.6834831D+00 0.2222899D+00
EXPONENTS  0.7161684D+02 0.1304510D+02 0.3530512D+01 0.2941249D+01 0.6834831D+00
EXPONENTS  0.2222899D+00 0.2941249D+01 0.6834831D+00 0.2222899D+00 0.2941249D+01
EXPONENTS  0.6834831D+00 0.2222899D+00 0.2941249D+01 0.6834831D+00 0.2222899D+00
EXPONENTS  0.7161684D+02 0.1304510D+02 0.3530512D+01 0.2941249D+01 0.6834831D+00
EXPONENTS  0.2222899D+00 0.2941249D+01 0.6834831D+00 0.2222899D+00 0.2941249D+01
EXPONENTS  0.6834831D+00 0.2222899D+00 0.2941249D+01 0.6834831D+00 0.2222899D+00
EXPONENTS  0.7161684D+02 0.1304510D+02 0.3530512D+01 0.2941249D+01 0.6834831D+00
EXPONENTS  0.2222899D+00 0.2941249D+01 0.6834831D+00 0.2222899D+00 0.2941249D+01
EXPONENTS  0.6834831D+00 0.2222899D+00 0.2941249D+01 0.6834831D+00 0.2222899D+00
EXPONENTS  0.7161684D+02 0.1304510D+02 0.3530512D+01 0.2941249D+01 0.6834831D+00
EXPONENTS  0.2222899D+00 0.2941249D+01 0.6834831D+00 0.2222899D+00 0.2941249D+01
EXPONENTS  0.6834831D+00 0.2222899D+00 0.2941249D+01 0.6834831D+00 0.2222899D+00
EXPONENTS  0.3425251D+01 0.6239137D+00 0.1688554D+00 0.3425251D+01 0.6239137D+00
EXPONENTS  0.1688554D+00 0.3425251D+01 0.6239137D+00 0.1688554D+00 0.3425251D+01
EXPONENTS  0.6239137D+00 0.1688554D+00 0.3425251D+01 0.6239137D+00 0.1688554D+00
EXPONENTS  0.3425251D+01 0.6239137D+00 0.1688554D+00 0.3425251D+01 0.6239137D+00
EXPONENTS  0.1688554D+00 0.3425251D+01 0.6239137D+00 0.1688554D+00 0.3425251D+01
EXPONENTS  0.6239137D+00 0.1688554D+00 0.3425251D+01 0.6239137D+00 0.1688554D+00
EXPONENTS  0.3425251D+01 0.6239137D+00 0.1688554D+00 0.3425251D+01 0.6239137D+00
EXPONENTS  0.1688554D+00
MO    1     MO 0.0        OCC NO =    2.0000006  ORB. ENERGY =    0.000000
  0.86463653D-01  0.83623881D-01  0.26061911D-01  0.21808589D-04 -0.29170749D-04
 -0.22015600D-04 -0.58516550D-03 -0.36796777D-03 -0.58292277D-04 -0.20139919D-03
 -0.12664522D-03 -0.20062730D-04 -0.43787728D-03 -0.27534899D-03 -0.43619906D-04
 -0.23984138D+00 -0.23196414D+00 -0.72293091D-01 -0.24767810D-04  0.33128947D-04
  0.25002910D-04 -0.30453703D-03 -0.19150106D-03 -0.30336985D-04 -0.96747293D-03
 -0.60837294D-03 -0.96376495D-04 -0.71067112D-03 -0.44688907D-03 -0.70794737D-04
 -0.62368984D-02 -0.60320566D-02 -0.18799286D-02  0.15814024D-04 -0.21152534D-04
 -0.15964133D-04 -0.28409585D-04 -0.17864709D-04 -0.28300701D-05  0.50020529D-05
  0.31454251D-05  0.49828818D-06  0.26520059D-04  0.16676525D-04  0.26418417D-05
  0.34266494D+01  0.33141061D+01  0.10328621D+01 -0.25116100D-02  0.33594813D-02
  0.25354507D-02 -0.79682472D-02 -0.50106477D-02 -0.79377077D-03  0.49513509D-02
  0.31135423D-02  0.49323741D-03  0.23786202D-01  0.14957402D-01  0.23695038D-02
 -0.16392966D-02 -0.15854563D-02 -0.49411748D-03  0.35899143D-04 -0.48018004D-04
 -0.36239904D-04 -0.14786051D-03 -0.92978653D-04 -0.14729381D-04  0.48076327D-04
  0.30231685D-04  0.47892068D-05 -0.30729615D-04 -0.19323607D-04 -0.30611839D-05
  0.20577423D-03  0.19901588D-03  0.62024557D-04 -0.51673930D-04  0.69118056D-04
  0.52164428D-04  0.76119132D-04  0.47865753D-04  0.75827395D-05 -0.17541937D-03
 -0.11030841D-03 -0.17474705D-04  0.29904990D-03  0.18805060D-03  0.29790375D-04
 -0.25023336D-02 -0.24201481D-02 -0.75425445D-03 -0.75060229D-06  0.10039912D-05
  0.75772713D-06  0.10421289D-04  0.65531861D-05  0.10381348D-05  0.79635934D-05
  0.50077212D-05  0.79330718D-06 -0.15357057D-04 -0.96569292D-05 -0.15298198D-05
  0.15108590D+00  0.14612371D+00  0.45540378D-01  0.29795323D-03 -0.39853651D-03
 -0.30078145D-03 -0.26695018D-02 -0.16786544D-02 -0.26592705D-03 -0.11447713D-02
 -0.71986294D-03 -0.11403838D-03  0.18554845D-02  0.11667785D-02  0.18483731D-03
 -0.79784685D-03 -0.77164274D-03 -0.24048734D-03  0.29393963D-05 -0.39316801D-05
 -0.29672976D-05 -0.33896181D-05 -0.21314828D-05 -0.33766269D-06  0.60267699D-05
  0.37897947D-05  0.60036715D-06  0.12991910D-04  0.81696614D-05  0.12942116D-05
 -0.32468756D-02 -0.31402367D-02 -0.97867462D-03 -0.27502517D-05  0.36786838D-05
  0.27763576D-05  0.15812418D-04  0.99432728D-05  0.15751815D-05 -0.29385542D-04
 -0.18478417D-04 -0.29272917D-05 -0.23332836D-04 -0.14672313D-04 -0.23243409D-05
 -0.10077917D-01 -0.97469224D-02 -0.30376900D-02  0.29399434D-04 -0.39324118D-04
 -0.29678498D-04 -0.77512054D-05 -0.48741660D-05 -0.77214978D-06  0.14567987D-04
  0.91607415D-05  0.14512154D-05  0.10078241D-04  0.63374685D-05  0.10039615D-05
  0.18881715D-02  0.18261572D-02  0.56913344D-03 -0.58007169D-05  0.77589275D-05
  0.58557783D-05  0.89950829D-05  0.56563495D-05  0.89606080D-06 -0.39317676D-06
 -0.24724010D-06 -0.39166986D-07 -0.40415426D-05 -0.25414304D-05 -0.40260528D-06
 -0.18373036D+00 -0.17769601D+00 -0.55380083D-01  0.35542686D-03 -0.47541214D-03
 -0.35880063D-03 -0.18105788D-03 -0.11385405D-03 -0.18036395D-04  0.25743811D-03
  0.16188399D-03  0.25645144D-04 -0.10052742D-03 -0.63214339D-04 -0.10014213D-04
 -0.36902489D-02 -0.35690481D-02 -0.11123164D-02  0.55246961D-05 -0.73897274D-05
 -0.55771375D-05  0.11834857D-04  0.74420757D-05  0.11789498D-05 -0.15307749D-05
 -0.96259233D-06 -0.15249080D-06 -0.73401219D-06 -0.46156657D-06 -0.73119899D-07
 -0.77566908D-04 -0.75019337D-04 -0.23380250D-04 -0.46722392D-06  0.62494974D-06
  0.47165889D-06  0.19170336D-05  0.12054822D-05  0.19096863D-06 -0.19546389D-05
 -0.12291294D-05 -0.19471475D-06 -0.33331355D-05 -0.20959651D-05 -0.33203608D-06
  0.21737602D-04  0.21023662D-04  0.65521572D-05 -0.14701878D-03 -0.14219016D-03
 -0.44314462D-04 -0.48602381D-03 -0.47006107D-03 -0.14649750D-03  0.98316984D-05
  0.95087907D-05  0.29634747D-05  0.11525843D-04  0.11147293D-04  0.34741245D-05
  0.49796495D-04  0.48161002D-04  0.15009681D-04 -0.38266348D-05 -0.37009546D-05
 -0.11534259D-05  0.42004314D-05  0.40624744D-05  0.12660958D-05 -0.16914249D-02
 -0.16358726D-02 -0.50983002D-03 -0.16485574D-02 -0.15944130D-02 -0.49690888D-03
  0.20851805D-06  0.20166958D-06  0.62851599D-07  0.11436078D-03  0.11060477D-03
  0.34470675D-04
MO    2     MO 0.0        OCC NO =    2.0000005  ORB. ENERGY =    0.000000
  0.24294267D+00  0.23496357D+00  0.73227882D-01  0.33793222D-03 -0.45201164D-03
 -0.34113993D-03  0.93695757D-03  0.58918407D-03  0.93336655D-04 -0.20379625D-02
 -0.12815255D-02 -0.20301517D-03  0.78489755D-03  0.49356464D-03  0.78188931D-04
  0.36376612D+01  0.35181876D+01  0.10964654D+01 -0.54511789D-03  0.72913922D-03
  0.55029225D-03  0.73379796D-02  0.46143185D-02  0.73098558D-03  0.12517927D-01
  0.78716086D-02  0.12469951D-02  0.12523715D-01  0.78752481D-02  0.12475716D-02
 -0.28600805D-02 -0.27661453D-02 -0.86208668D-03  0.68371020D-05 -0.91451762D-05
 -0.69020009D-05 -0.34451648D-05 -0.21664120D-05 -0.34319607D-06  0.88904806D-05
  0.55905728D-05  0.88564066D-06 -0.41462364D-05 -0.26072647D-05 -0.41303453D-06
  0.28386484D+00  0.27454171D+00  0.85562659D-01 -0.31388453D-03  0.41984592D-03
  0.31686398D-03 -0.81815159D-03 -0.51447568D-03 -0.81501591D-04  0.17049889D-03
  0.10721428D-03  0.16984543D-04  0.18924430D-02  0.11900189D-02  0.18851899D-03
 -0.54708168D-02 -0.52911358D-02 -0.16490159D-02  0.28914897D-04 -0.38676011D-04
 -0.29189362D-04 -0.20857778D-04 -0.13115931D-04 -0.20777838D-05 -0.47889617D-05
 -0.30114276D-05 -0.47706073D-06  0.55214385D-05  0.34720287D-05  0.55002768D-06
  0.32958796D-01  0.31876313D-01  0.99344544D-02 -0.12939788D-03  0.17308012D-03
  0.13062615D-03 -0.22424304D-04 -0.14101004D-04 -0.22338360D-05 -0.13819786D-03
 -0.86902522D-04 -0.13766819D-04 -0.20029591D-03 -0.12595144D-03 -0.19952825D-04
  0.37961528D-01  0.36714737D-01  0.11442380D-01 -0.15355131D-04  0.20538729D-04
  0.15500885D-04 -0.45911161D-04 -0.28870170D-04 -0.45735200D-05  0.29576661D-03
  0.18598598D-03  0.29463304D-04  0.69217303D-04  0.43525698D-04  0.68952018D-05
 -0.15871738D-01 -0.15350454D-01 -0.47840661D-02  0.73768050D-03 -0.98670727D-03
 -0.74468270D-03 -0.76981813D-03 -0.48408230D-03 -0.76686769D-04  0.31405290D-02
  0.19748489D-02  0.31284924D-03  0.59465977D-04  0.37393802D-04  0.59238065D-05
  0.65388969D-02  0.63241364D-02  0.19709571D-02 -0.25389590D-05  0.33960628D-05
  0.25630592D-05 -0.34048600D-04 -0.21410673D-04 -0.33918104D-05  0.31588702D-04
  0.19863823D-04  0.31467633D-05  0.23333838D-04  0.14672944D-04  0.23244408D-05
 -0.12479043D-01 -0.12069187D-01 -0.37614384D-02  0.27708218D-04 -0.37061979D-04
 -0.27971229D-04  0.12691611D-04  0.79808258D-05  0.12642969D-05  0.23739491D-04
  0.14928029D-04  0.23648506D-05 -0.11979905D-05 -0.75332855D-06 -0.11933990D-06
  0.24907019D+00  0.24088985D+00  0.75074844D-01 -0.69038472D-03  0.92344534D-03
  0.69693797D-03 -0.70153507D-04 -0.44114408D-04 -0.69884634D-05 -0.31421034D-04
 -0.19758389D-04 -0.31300608D-05 -0.35725993D-04 -0.22465463D-04 -0.35589068D-05
  0.31662262D-02  0.30622361D-02  0.95436524D-03  0.68851943D-06 -0.92095036D-06
 -0.69505497D-06 -0.12271529D-04 -0.77166669D-05 -0.12224497D-05  0.16945240D-04
  0.10655621D-04  0.16880295D-05  0.49225847D-05  0.30954534D-05  0.49037182D-06
  0.13329281D+01  0.12891500D+01  0.40177175D+00 -0.21525086D-02  0.28791541D-02
  0.21729406D-02  0.12776480D-02  0.80341934D-03  0.12727512D-03  0.89168027D-03
  0.56071248D-03  0.88826278D-04  0.18255539D-02  0.11479573D-02  0.18185572D-03
  0.93502941D-01  0.90431974D-01  0.28183696D-01 -0.14150878D-03  0.18927942D-03
  0.14285200D-03 -0.20891013D-03 -0.13136829D-03 -0.20810945D-04 -0.22129530D-04
 -0.13915642D-04 -0.22044715D-05  0.81233478D-04  0.51081791D-04  0.80922139D-05
  0.12562316D-01  0.12149725D-01  0.37865386D-02  0.61375116D-06 -0.82094177D-06
 -0.61957700D-06 -0.91854977D-04 -0.57760875D-04 -0.91502930D-05  0.59786627D-04
  0.37595435D-04  0.59557486D-05  0.38751665D-04  0.24368087D-04  0.38603143D-05
 -0.12482384D-03 -0.12072419D-03 -0.37624456D-04 -0.11931520D-03 -0.11539646D-03
 -0.35964037D-04  0.88302643D-04  0.85402472D-04  0.26616220D-04  0.12978777D-04
  0.12552508D-04  0.39120684D-05  0.58498028D-06  0.56576746D-06  0.17632500D-06
 -0.87898718D-03 -0.85011814D-03 -0.26494469D-03 -0.25021390D-05 -0.24199599D-05
 -0.75419580D-06 -0.87857920D-04 -0.84972355D-04 -0.26482172D-04 -0.17696626D-03
 -0.17115406D-03 -0.53341245D-04 -0.26805100D-03 -0.25924726D-03 -0.80796048D-04
 -0.58248331D-05 -0.56335250D-05 -0.17557237D-05 -0.52249128D-03 -0.50533082D-03
 -0.15748954D-03
MO    3     MO 0.0        OCC NO =    2.0000004  ORB. ENERGY =    0.000000
  0.99338235D-01  0.96075617D-01  0.29942573D-01  0.58889983D-05 -0.78770110D-05
 -0.59448977D-05 -0.19578060D-03 -0.12311209D-03 -0.19503024D-04 -0.31946611D-03
 -0.20088887D-03 -0.31824171D-04 -0.32806134D-03 -0.20629377D-03 -0.32680400D-04
  0.25745266D-01  0.24899700D-01  0.77601490D-02 -0.36655327D-04  0.49029461D-04
  0.37003266D-04  0.37702872D-04  0.23708578D-04  0.37558371D-05  0.84056413D-04
  0.52856928D-04  0.83734254D-05  0.58051247D-04  0.36504182D-04  0.57828757D-05
  0.30628510D+00  0.29622561D+00  0.92320584D-01 -0.12045013D-03  0.16111177D-03
  0.12159346D-03 -0.17738420D-02 -0.11154394D-02 -0.17670435D-03 -0.51393313D-03
 -0.32317494D-03 -0.51196340D-04  0.49008409D-03  0.30817803D-03  0.48820578D-04
  0.98845086D-02  0.95598664D-02  0.29793928D-02 -0.62290431D-05  0.83318484D-05
  0.62881703D-05  0.47187026D-04  0.29672468D-04  0.47006174D-05  0.28048247D-04
  0.17637490D-04  0.27940748D-05  0.52804556D-04  0.33204922D-04  0.52602175D-05
  0.17567275D+01  0.16990304D+01  0.52951355D+00 -0.38828647D-02  0.51936453D-02
  0.39197216D-02 -0.13772675D-02 -0.86606274D-03 -0.13719889D-03 -0.10364690D-03
 -0.65175953D-04 -0.10324966D-04  0.47057182D-03  0.29590819D-03  0.46876828D-04
 -0.25344340D-01 -0.24511943D-01 -0.76393019D-02  0.77454674D-03 -0.10360188D-02
 -0.78189888D-03  0.27988017D-02  0.17599616D-02  0.27880749D-03 -0.11064780D-03
 -0.69578305D-04 -0.11022372D-04 -0.95663153D-03 -0.60155558D-03 -0.95296510D-04
  0.20073852D+00  0.19414555D+00  0.60506689D-01  0.87589360D-04 -0.11715784D-03
 -0.88420773D-04 -0.16932146D-02 -0.10647388D-02 -0.16867251D-03 -0.22204218D-02
 -0.13962608D-02 -0.22119117D-03  0.18050360D-03  0.11350551D-03  0.17981179D-04
 -0.30871267D-01 -0.29857345D-01 -0.93052304D-02  0.66495565D-04 -0.88943190D-04
 -0.67126752D-04  0.53309101D-04  0.33522193D-04  0.53104786D-05  0.17704696D-03
  0.11133188D-03  0.17636840D-04  0.63873770D-04  0.40165541D-04  0.63628965D-05
  0.67423023D-01  0.65208613D-01  0.20322676D-01  0.95877925D-05 -0.12824447D-04
 -0.96788014D-05 -0.68795102D-03 -0.43260206D-03 -0.68531435D-04 -0.84976535D-03
 -0.53435526D-03 -0.84650850D-04  0.82191043D-04  0.51683933D-04  0.81876034D-05
  0.19466114D+01  0.18826778D+01  0.58674843D+00 -0.41336858D-02  0.55291386D-02
  0.41729234D-02 -0.14868962D-02 -0.93500024D-03 -0.14811975D-03 -0.22137709D-02
 -0.13920785D-02 -0.22052863D-03  0.14196366D-03  0.89270556D-04  0.14141956D-04
 -0.22386655D+00 -0.21651398D+00 -0.67477952D-01  0.52899732D-03 -0.70757665D-03
 -0.53401865D-03  0.23159655D-03  0.14563413D-03  0.23070892D-04 -0.35425110D-03
 -0.22276260D-03 -0.35289338D-04 -0.14588432D-03 -0.91735978D-04 -0.14532520D-04
 -0.15351943D+00 -0.14847731D+00 -0.46273893D-01  0.35749315D-03 -0.47817597D-03
 -0.36088654D-03 -0.22067427D-03 -0.13876590D-03 -0.21982850D-04 -0.93020358D-04
 -0.58493698D-04 -0.92663844D-05  0.53849698D-04  0.33862135D-04  0.53643311D-05
  0.47725464D-01  0.46157991D-01  0.14385430D-01 -0.94705353D-04  0.12667606D-03
  0.95604312D-04 -0.59858143D-04 -0.37640407D-04 -0.59628728D-05 -0.50970696D-05
 -0.32051741D-05 -0.50775343D-06 -0.81891134D-04 -0.51495343D-04 -0.81577275D-05
 -0.28690622D+00 -0.27748320D+00 -0.86479394D-01  0.61647707D-03 -0.82458788D-03
 -0.62232877D-03 -0.10708412D-03 -0.67337369D-04 -0.10667371D-04 -0.30855959D-03
 -0.19403055D-03 -0.30737699D-04 -0.18863516D-04 -0.11861885D-04 -0.18791218D-05
 -0.19559173D+00 -0.18916780D+00 -0.58955342D-01  0.35943674D-03 -0.48077568D-03
 -0.36284857D-03  0.36599976D-04  0.23015047D-04  0.36459701D-05 -0.24968166D-03
 -0.15700653D-03 -0.24872472D-04 -0.57008228D-04 -0.35848303D-04 -0.56789735D-05
 -0.11342971D-04 -0.10970428D-04 -0.34190033D-05 -0.75485981D-04 -0.73006755D-04
 -0.22753017D-04 -0.64763214D-04 -0.62636161D-04 -0.19520955D-04 -0.21225534D-02
 -0.20528413D-02 -0.63978096D-03 -0.14671930D-03 -0.14190052D-03 -0.44224194D-04
  0.18270034D-03  0.17669981D-03  0.55069614D-04  0.13282378D-03  0.12846138D-03
  0.40035801D-04  0.30639048D-03  0.29632754D-03  0.92352350D-04 -0.30890664D-05
 -0.29876106D-05 -0.93110772D-06 -0.17179702D-06 -0.16615460D-06 -0.51783132D-07
  0.19960638D-03  0.19305060D-03  0.60165439D-04 -0.42679338D-04 -0.41277598D-04
 -0.12864424D-04
MO    4     MO 0.0        OCC NO =    2.0000003  ORB. ENERGY =    0.000000
  0.41569152D+01  0.40203874D+01  0.12529791D+01 -0.60550914D-03  0.80991739D-03
  0.61125674D-03 -0.92898795D-02 -0.58417255D-02 -0.92542747D-03 -0.11736766D-01
 -0.73803932D-02 -0.11691783D-02 -0.15561179D-01 -0.97852871D-02 -0.15501539D-02
 -0.53897047D+00 -0.52126878D+00 -0.16245671D+00  0.25495678D-04 -0.34102528D-04
 -0.25737687D-04 -0.11096388D-02 -0.69777066D-03 -0.11053860D-03 -0.19336894D-02
 -0.12159558D-02 -0.19262782D-03 -0.19237112D-02 -0.12096813D-02 -0.19163383D-03
 -0.13507853D-01 -0.13064207D-01 -0.40715428D-02  0.22433362D-05 -0.30006434D-05
 -0.22646303D-05  0.67775896D-04  0.42619302D-04  0.67516135D-05 -0.84177929D-07
 -0.52933341D-07 -0.83855305D-08 -0.19919857D-04 -0.12526141D-04 -0.19843511D-05
 -0.61820660D-01 -0.59790251D-01 -0.18634010D-01 -0.38279796D-04  0.51202320D-04
  0.38643154D-04  0.17148478D-03  0.10783423D-03  0.17082754D-04 -0.21861319D-03
 -0.13746984D-03 -0.21777532D-04 -0.34442304D-03 -0.21658245D-03 -0.34310299D-04
 -0.68223994D-01 -0.65983277D-01 -0.20564105D-01  0.12668993D-03 -0.16945801D-03
 -0.12789249D-03  0.26542472D-04  0.16690619D-04  0.26440744D-05 -0.40894220D-04
 -0.25715383D-04 -0.40737487D-05 -0.10408838D-04 -0.65453565D-05 -0.10368944D-05
 -0.16048673D-01 -0.15521578D-01 -0.48373978D-02  0.95453739D-05 -0.12767709D-04
 -0.96359802D-05 -0.89258487D-04 -0.56128132D-04 -0.88916391D-05  0.76748580D-04
  0.48261566D-04  0.76454430D-05  0.30310597D-04  0.19060116D-04  0.30194427D-05
 -0.63266474D-01 -0.61188579D-01 -0.19069808D-01  0.63683588D-04 -0.85181944D-04
 -0.64288084D-04  0.76932871D-04  0.48377454D-04  0.76638015D-05 -0.17948413D-03
 -0.11286444D-03 -0.17879623D-04 -0.67081997D-04 -0.42182960D-04 -0.66824896D-05
 -0.42196299D-01 -0.40810424D-01 -0.12718827D-01  0.18406522D-03 -0.24620210D-03
 -0.18581240D-03  0.30926532D-04  0.19447433D-04  0.30808002D-05  0.60614548D-03
  0.38116054D-03  0.60382234D-04  0.15820761D-03  0.99485188D-04  0.15760125D-04
 -0.23755133D-01 -0.22974931D-01 -0.71602823D-02  0.20591435D-04 -0.27542707D-04
 -0.20786892D-04  0.28159977D-04  0.17707749D-04  0.28052050D-05 -0.30377687D-04
 -0.19102305D-04 -0.30261261D-05 -0.13893790D-04 -0.87367878D-05 -0.13840540D-05
 -0.72316090D-01 -0.69940974D-01 -0.21797547D-01  0.14962801D-03 -0.20013955D-03
 -0.15104830D-03  0.42777637D-04  0.26899726D-04  0.42613685D-05  0.62342864D-04
  0.39202866D-04  0.62103926D-05 -0.66509825D-05 -0.41823162D-05 -0.66254916D-06
 -0.19746689D+00 -0.19098138D+00 -0.59520554D-01  0.45509666D-03 -0.60872855D-03
 -0.45941652D-03  0.88443346D-04  0.55615549D-04  0.88104374D-05 -0.90428098D-04
 -0.56863615D-04 -0.90081520D-05 -0.50110921D-04 -0.31511092D-04 -0.49918863D-05
 -0.31869385D-01 -0.30822682D-01 -0.96060837D-02  0.54488833D-04 -0.72883216D-04
 -0.55006051D-04 -0.88759579D-05 -0.55814405D-05 -0.88419395D-06 -0.31801634D-04
 -0.19997721D-04 -0.31679749D-05 -0.14027255D-05 -0.88207146D-06 -0.13973494D-06
  0.34135715D+00  0.33014578D+00  0.10289202D+00 -0.34821489D-03  0.46576555D-03
  0.35152021D-03 -0.25363600D-02 -0.15949312D-02 -0.25266390D-03 -0.10554680D-02
 -0.66370658D-03 -0.10514227D-03 -0.37615384D-02 -0.23653563D-02 -0.37471217D-03
 -0.14468130D+00 -0.13992945D+00 -0.43609899D-01  0.28352262D-03 -0.37923441D-03
 -0.28621387D-03  0.98855008D-04  0.62162681D-04  0.98476131D-05 -0.48048913D-04
 -0.30214446D-04 -0.47864759D-05 -0.42081774D-04 -0.26462149D-04 -0.41920489D-05
 -0.55114850D-01 -0.53304683D-01 -0.16612741D-01  0.80259069D-04 -0.10735299D-03
 -0.81020902D-04  0.10171047D-03  0.63958270D-04  0.10132065D-04 -0.85538339D-04
 -0.53788803D-04 -0.85210501D-05 -0.49826810D-04 -0.31332435D-04 -0.49635841D-05
  0.33470498D-04  0.32371208D-04  0.10088692D-04 -0.53095868D-05 -0.51352012D-05
 -0.16004179D-05 -0.63767791D-05 -0.61673431D-05 -0.19220915D-05  0.78538649D-04
  0.75959162D-04  0.23673153D-04  0.10170237D-04  0.98362103D-05  0.30655171D-05
  0.29809309D-03  0.28830266D-03  0.89851346D-04  0.30110602D-04  0.29121664D-04
  0.90759505D-05  0.14612049D-03  0.14132137D-03  0.44043699D-04 -0.25092700D-03
 -0.24268567D-03 -0.75634523D-04  0.18628377D-04  0.18016555D-04  0.56149732D-05
  0.48732719D-04  0.47132164D-04  0.14689037D-04 -0.14004980D-02 -0.13545007D-02
 -0.42213871D-03
MO    5     MO 0.0        OCC NO =    2.0000003  ORB. ENERGY =    0.000000
  0.39616495D+00  0.38315349D+00  0.11941221D+00 -0.16874437D-03  0.22570922D-03
  0.17034612D-03 -0.10263632D-02 -0.64540470D-03 -0.10224295D-03 -0.91299592D-03
 -0.57411634D-03 -0.90949673D-04 -0.16594466D-02 -0.10435046D-02 -0.16530865D-03
 -0.19176698D+00 -0.18546867D+00 -0.57802483D-01  0.18717397D-03 -0.25036030D-03
 -0.18895066D-03 -0.31303357D-03 -0.19684391D-03 -0.31183383D-04 -0.73515830D-03
 -0.46228727D-03 -0.73234070D-04 -0.48178708D-03 -0.30296064D-03 -0.47994056D-04
  0.78759275D-01  0.76172542D-01  0.23739654D-01 -0.87508979D-05  0.11705033D-04
  0.88339629D-05 -0.30850143D-03 -0.19399398D-03 -0.30731905D-04  0.92901980D-04
  0.58419258D-04  0.92545920D-05  0.11540860D-03  0.72572027D-04  0.11496628D-04
 -0.22351421D-01 -0.21617321D-01 -0.67371747D-02  0.29629774D-04 -0.39632216D-04
 -0.29911025D-04  0.96690533D-04  0.60801602D-04  0.96319953D-05 -0.13786569D-04
 -0.86693645D-05 -0.13733730D-05 -0.12313058D-03 -0.77427813D-04 -0.12265866D-04
  0.28392044D+00  0.27459549D+00  0.85579420D-01 -0.48798380D-03  0.65271776D-03
  0.49261583D-03  0.16796110D-03  0.10561845D-03  0.16731737D-04  0.36959795D-03
  0.23241311D-03  0.36818141D-04  0.15908652D-04  0.10003787D-04  0.15847679D-05
 -0.43474090D-02 -0.42046247D-02 -0.13103979D-02  0.14005377D-03 -0.18733323D-03
 -0.14138318D-03  0.48793786D-03  0.30682842D-03  0.48606777D-04  0.23073452D-04
  0.14509206D-04  0.22985019D-05 -0.17599024D-03 -0.11066739D-03 -0.17531573D-04
  0.52312041D+00  0.50593928D+00  0.15767918D+00 -0.70346098D-03  0.94093589D-03
  0.71013835D-03 -0.21459543D-03 -0.13494337D-03 -0.21377297D-04  0.12596320D-02
  0.79209043D-03  0.12548043D-03  0.29380904D-03  0.18475501D-03  0.29268298D-04
  0.58166314D-02  0.56255927D-02  0.17532515D-02 -0.10973313D-03  0.14677692D-03
  0.11077473D-03  0.74668366D-04  0.46953472D-04  0.74382189D-05 -0.36952047D-03
 -0.23236439D-03 -0.36810423D-04  0.10714035D-05  0.67372726D-06  0.10672972D-06
  0.37470322D+00  0.36239664D+00  0.11294320D+00 -0.32167885D-03  0.43027145D-03
  0.32473228D-03  0.74113818D-03  0.46604758D-03  0.73829766D-04  0.10139285D-02
  0.63758542D-03  0.10100424D-03 -0.61088602D-04 -0.38414152D-04 -0.60854471D-05
  0.23806698D+00  0.23024802D+00  0.71758250D-01 -0.44337248D-03  0.59304651D-03
  0.44758105D-03 -0.70970553D-04 -0.44628188D-04 -0.70698548D-05 -0.18008860D-04
 -0.11324454D-04 -0.17939838D-05  0.22146476D-04  0.13926298D-04  0.22061597D-05
  0.12422183D+01  0.12014195D+01  0.37442998D+00 -0.25262259D-02  0.33790312D-02
  0.25502053D-02 -0.37650512D-03 -0.23675652D-03 -0.37506211D-04  0.86550752D-03
  0.54425435D-03  0.86219034D-04  0.31482754D-03  0.19797201D-03  0.31362092D-04
  0.11515600D+01  0.11137387D+01  0.34710372D+00 -0.24288436D-02  0.32487745D-02
  0.24518986D-02  0.10085908D-02  0.63422894D-03  0.10047252D-03  0.33133067D-03
  0.20834962D-03  0.33006080D-04 -0.27566046D-03 -0.17334270D-03 -0.27460395D-04
 -0.17642295D+00 -0.17062859D+00 -0.53177480D-01  0.39654480D-03 -0.53041070D-03
 -0.40030887D-03 -0.24340649D-03 -0.15306053D-03 -0.24247360D-04  0.17061146D-04
  0.10728507D-04  0.16995757D-05 -0.33969152D-03 -0.21360714D-03 -0.33838960D-04
  0.14175602D+01  0.13710025D+01  0.42728159D+00 -0.27847521D-02  0.37248309D-02
  0.28111855D-02  0.51921634D-03  0.32649717D-03  0.51722637D-04  0.50978165D-03
  0.32056438D-03  0.50782784D-04 -0.73863546D-04 -0.46447380D-04 -0.73580453D-05
  0.12799507D+01  0.12379126D+01  0.38580328D+00 -0.23968763D-02  0.32060157D-02
  0.24196279D-02 -0.27592044D-03 -0.17350618D-03 -0.27486294D-04  0.73705777D-03
  0.46348170D-03  0.73423289D-04  0.22629281D-03  0.14229899D-03  0.22542551D-04
 -0.24449588D-04 -0.23646577D-04 -0.73696052D-05  0.10704693D-04  0.10353113D-04
  0.32266131D-05 -0.29644393D-04 -0.28670767D-04 -0.89354256D-05 -0.23963352D-03
 -0.23176311D-03 -0.72230437D-04 -0.10635302D-03 -0.10286001D-03 -0.32056971D-04
 -0.12203033D-02 -0.11802242D-02 -0.36782434D-03 -0.11356739D-02 -0.10983744D-02
 -0.34231531D-03 -0.13731289D-02 -0.13280305D-02 -0.41388910D-03 -0.75262475D-05
 -0.72790589D-05 -0.22685647D-05  0.26051500D-04  0.25195877D-04  0.78524543D-05