 opt tryptophan b3lyp
GAUSSIAN             54 MOL ORBITALS    261 PRIMITIVES       27 NUCLEI
  O    1    (CENTRE  1)   6.45960887 -2.56733854  1.98767582  CHARGE =  8.0
  O    2    (CENTRE  2)   3.61954608 -3.33610532 -1.32804047  CHARGE =  8.0
  N    3    (CENTRE  3)  -4.22728006  3.80656280  0.67945257  CHARGE =  7.0
  N    4    (CENTRE  4)   6.82688018  2.34649860 -0.02780044  CHARGE =  7.0
  C    5    (CENTRE  5)  -0.42995393  2.27725791 -0.72970863  CHARGE =  6.0
  C    6    (CENTRE  6)   2.31200183  2.15744077 -1.64192900  CHARGE =  6.0
  C    7    (CENTRE  7)  -2.19120565  0.16217196 -0.45465732  CHARGE =  6.0
  C    8    (CENTRE  8)   4.23210288  1.13762934  0.39799998  CHARGE =  6.0
  C    9    (CENTRE  9)  -4.55897937  1.16729952  0.41365137  CHARGE =  6.0
  C   10    (CENTRE 10)  -1.72404110  4.43854579 -0.03704308  CHARGE =  6.0
  C   11    (CENTRE 11)  -1.98005486 -2.48327615 -0.87703338  CHARGE =  6.0
  C   12    (CENTRE 12)  -6.69805542 -0.38249567  0.85809875  CHARGE =  6.0
  C   13    (CENTRE 13)   4.62649646 -1.80581108  0.16978508  CHARGE =  6.0
  C   14    (CENTRE 14)  -4.09063633 -4.01503095 -0.44007789  CHARGE =  6.0
  C   15    (CENTRE 15)  -6.42508900 -2.97569988  0.41361187  CHARGE =  6.0
  H   16    (CENTRE 16)   2.45372900  0.93418217 -3.32796442  CHARGE =  1.0
  H   17    (CENTRE 17)   2.93731740  4.06906680 -2.19502537  CHARGE =  1.0
  H   18    (CENTRE 18)   3.47575613  1.51996571  2.32730018  CHARGE =  1.0
  H   19    (CENTRE 19)  -1.10539675  6.41417507  0.00751170  CHARGE =  1.0
  H   20    (CENTRE 20)  -5.61941033  5.09160432  1.21046458  CHARGE =  1.0
  H   21    (CENTRE 21)  -0.14887909 -3.26653317 -1.49426218  CHARGE =  1.0
  H   22    (CENTRE 22)  -8.49127782  0.42167502  1.51964266  CHARGE =  1.0
  H   23    (CENTRE 23)  -3.96056199 -6.06165180 -0.75330590  CHARGE =  1.0
  H   24    (CENTRE 24)   7.98534362  1.46759058  1.36029245  CHARGE =  1.0
  H   25    (CENTRE 25)   6.62538290  4.20896367  0.69863534  CHARGE =  1.0
  H   26    (CENTRE 26)  -8.04024418 -4.23879670  0.73344445  CHARGE =  1.0
  H   27    (CENTRE 27)   6.62228761 -4.47230992  1.63843238  CHARGE =  1.0
CENTRE ASSIGNMENTS    1  1  1  1  1  1  1  1  1  1  1  1  1  1  1  2  2  2  2  2
CENTRE ASSIGNMENTS    2  2  2  2  2  2  2  2  2  2  3  3  3  3  3  3  3  3  3  3
CENTRE ASSIGNMENTS    3  3  3  3  3  4  4  4  4  4  4  4  4  4  4  4  4  4  4  4
CENTRE ASSIGNMENTS    5  5  5  5  5  5  5  5  5  5  5  5  5  5  5  6  6  6  6  6
CENTRE ASSIGNMENTS    6  6  6  6  6  6  6  6  6  6  7  7  7  7  7  7  7  7  7  7
CENTRE ASSIGNMENTS    7  7  7  7  7  8  8  8  8  8  8  8  8  8  8  8  8  8  8  8
CENTRE ASSIGNMENTS    9  9  9  9  9  9  9  9  9  9  9  9  9  9  9 10 10 10 10 10
CENTRE ASSIGNMENTS   10 10 10 10 10 10 10 10 10 10 11 11 11 11 11 11 11 11 11 11
CENTRE ASSIGNMENTS   11 11 11 11 11 12 12 12 12 12 12 12 12 12 12 12 12 12 12 12
CENTRE ASSIGNMENTS   13 13 13 13 13 13 13 13 13 13 13 13 13 13 13 14 14 14 14 14
CENTRE ASSIGNMENTS   14 14 14 14 14 14 14 14 14 14 15 15 15 15 15 15 15 15 15 15
CENTRE ASSIGNMENTS   15 15 15 15 15 16 16 16 17 17 17 18 18 18 19 19 19 20 20 20
CENTRE ASSIGNMENTS   21 21 21 22 22 22 23 23 23 24 24 24 25 25 25 26 26 26 27 27
CENTRE ASSIGNMENTS   27
TYPE ASSIGNMENTS      1  1  1  1  1  1  2  2  2  3  3  3  4  4  4  1  1  1  1  1
TYPE ASSIGNMENTS      1  2  2  2  3  3  3  4  4  4  1  1  1  1  1  1  2  2  2  3
TYPE ASSIGNMENTS      3  3  4  4  4  1  1  1  1  1  1  2  2  2  3  3  3  4  4  4
TYPE ASSIGNMENTS      1  1  1  1  1  1  2  2  2  3  3  3  4  4  4  1  1  1  1  1
TYPE ASSIGNMENTS      1  2  2  2  3  3  3  4  4  4  1  1  1  1  1  1  2  2  2  3
TYPE ASSIGNMENTS      3  3  4  4  4  1  1  1  1  1  1  2  2  2  3  3  3  4  4  4
TYPE ASSIGNMENTS      1  1  1  1  1  1  2  2  2  3  3  3  4  4  4  1  1  1  1  1
TYPE ASSIGNMENTS      1  2  2  2  3  3  3  4  4  4  1  1  1  1  1  1  2  2  2  3
TYPE ASSIGNMENTS      3  3  4  4  4  1  1  1  1  1  1  2  2  2  3  3  3  4  4  4
TYPE ASSIGNMENTS      1  1  1  1  1  1  2  2  2  3  3  3  4  4  4  1  1  1  1  1
TYPE ASSIGNMENTS      1  2  2  2  3  3  3  4  4  4  1  1  1  1  1  1  2  2  2  3
TYPE ASSIGNMENTS      3  3  4  4  4  1  1  1  1  1  1  1  1  1  1  1  1  1  1  1
TYPE ASSIGNMENTS      1  1  1  1  1  1  1  1  1  1  1  1  1  1  1  1  1  1  1  1
TYPE ASSIGNMENTS      1
EXPONENTS  0.1307093D+03 0.2380887D+02 0.6443608D+01 0.5033151D+01 0.1169596D+01
EXPONENTS  0.3803890D+00 0.5033151D+01 0.1169596D+01 0.3803890D+00 0.5033151D+01
EXPONENTS  0.1169596D+01 0.3803890D+00 0.5033151D+01 0.1169596D+01 0.3803890D+00
EXPONENTS  0.1307093D+03 0.2380887D+02 0.6443608D+01 0.5033151D+01 0.1169596D+01
EXPONENTS  0.3803890D+00 0.5033151D+01 0.1169596D+01 0.3803890D+00 0.5033151D+01
EXPONENTS  0.1169596D+01 0.3803890D+00 0.5033151D+01 0.1169596D+01 0.3803890D+00
EXPONENTS  0.9910617D+02 0.1805231D+02 0.4885660D+01 0.3780456D+01 0.8784966D+00
EXPONENTS  0.2857144D+00 0.3780456D+01 0.8784966D+00 0.2857144D+00 0.3780456D+01
EXPONENTS  0.8784966D+00 0.2857144D+00 0.3780456D+01 0.8784966D+00 0.2857144D+00
EXPONENTS  0.9910617D+02 0.1805231D+02 0.4885660D+01 0.3780456D+01 0.8784966D+00
EXPONENTS  0.2857144D+00 0.3780456D+01 0.8784966D+00 0.2857144D+00 0.3780456D+01
EXPONENTS  0.8784966D+00 0.2857144D+00 0.3780456D+01 0.8784966D+00 0.2857144D+00
EXPONENTS  0.7161684D+02 0.1304510D+02 0.3530512D+01 0.2941249D+01 0.6834831D+00
EXPONENTS  0.2222899D+00 0.2941249D+01 0.6834831D+00 0.2222899D+00 0.2941249D+01
EXPONENTS  0.6834831D+00 0.2222899D+00 0.2941249D+01 0.6834831D+00 0.2222899D+00
EXPONENTS  0.7161684D+02 0.1304510D+02 0.3530512D+01 0.2941249D+01 0.6834831D+00
EXPONENTS  0.2222899D+00 0.2941249D+01 0.6834831D+00 0.2222899D+00 0.2941249D+01
EXPONENTS  0.6834831D+00 0.2222899D+00 0.2941249D+01 0.6834831D+00 0.2222899D+00
EXPONENTS  0.7161684D+02 0.1304510D+02 0.3530512D+01 0.2941249D+01 0.6834831D+00
EXPONENTS  0.2222899D+00 0.2941249D+01 0.6834831D+00 0.2222899D+00 0.2941249D+01
EXPONENTS  0.6834831D+00 0.2222899D+00 0.2941249D+01 0.6834831D+00 0.2222899D+00
EXPONENTS  0.7161684D+02 0.1304510D+02 0.3530512D+01 0.2941249D+01 0.6834831D+00
EXPONENTS  0.2222899D+00 0.2941249D+01 0.6834831D+00 0.2222899D+00 0.2941249D+01
EXPONENTS  0.6834831D+00 0.2222899D+00 0.2941249D+01 0.6834831D+00 0.2222899D+00
EXPONENTS  0.7161684D+02 0.1304510D+02 0.3530512D+01 0.2941249D+01 0.6834831D+00
EXPONENTS  0.2222899D+00 0.2941249D+01 0.6834831D+00 0.2222899D+00 0.2941249D+01
EXPONENTS  0.6834831D+00 0.2222899D+00 0.2941249D+01 0.6834831D+00 0.2222899D+00
EXPONENTS  0.7161684D+02 0.1304510D+02 0.3530512D+01 0.2941249D+01 0.6834831D+00
EXPONENTS  0.2222899D+00 0.2941249D+01 0.6834831D+00 0.2222899D+00 0.2941249D+01
EXPONENTS  0.6834831D+00 0.2222899D+00 0.2941249D+01 0.6834831D+00 0.2222899D+00
EXPONENTS  0.7161684D+02 0.1304510D+02 0.3530512D+01 0.2941249D+01 0.6834831D+00
EXPONENTS  0.2222899D+00 0.2941249D+01 0.6834831D+00 0.2222899D+00 0.2941249D+01
EXPONENTS  0.6834831D+00 0.2222899D+00 0.2941249D+01 0.6834831D+00 0.2222899D+00
EXPONENTS  0.7161684D+02 0.1304510D+02 0.3530512D+01 0.2941249D+01 0.6834831D+00
EXPONENTS  0.2222899D+00 0.2941249D+01 0.6834831D+00 0.2222899D+00 0.2941249D+01
EXPONENTS  0.6834831D+00 0.2222899D+00 0.2941249D+01 0.6834831D+00 0.2222899D+00
EXPONENTS  0.7161684D+02 0.1304510D+02 0.3530512D+01 0.2941249D+01 0.6834831D+00
EXPONENTS  0.2222899D+00 0.2941249D+01 0.6834831D+00 0.2222899D+00 0.2941249D+01
EXPONENTS  0.6834831D+00 0.2222899D+00 0.2941249D+01 0.6834831D+00 0.2222899D+00
EXPONENTS  0.7161684D+02 0.1304510D+02 0.3530512D+01 0.2941249D+01 0.6834831D+00
EXPONENTS  0.2222899D+00 0.2941249D+01 0.6834831D+00 0.2222899D+00 0.2941249D+01
EXPONENTS  0.6834831D+00 0.2222899D+00 0.2941249D+01 0.6834831D+00 0.2222899D+00
EXPONENTS  0.7161684D+02 0.1304510D+02 0.3530512D+01 0.2941249D+01 0.6834831D+00
EXPONENTS  0.2222899D+00 0.2941249D+01 0.6834831D+00 0.2222899D+00 0.2941249D+01
EXPONENTS  0.6834831D+00 0.2222899D+00 0.2941249D+01 0.6834831D+00 0.2222899D+00
EXPONENTS  0.3425251D+01 0.6239137D+00 0.1688554D+00 0.3425251D+01 0.6239137D+00
EXPONENTS  0.1688554D+00 0.3425251D+01 0.6239137D+00 0.1688554D+00 0.3425251D+01
EXPONENTS  0.6239137D+00 0.1688554D+00 0.3425251D+01 0.6239137D+00 0.1688554D+00
EXPONENTS  0.3425251D+01 0.6239137D+00 0.1688554D+00 0.3425251D+01 0.6239137D+00
EXPONENTS  0.1688554D+00 0.3425251D+01 0.6239137D+00 0.1688554D+00 0.3425251D+01
EXPONENTS  0.6239137D+00 0.1688554D+00 0.3425251D+01 0.6239137D+00 0.1688554D+00
EXPONENTS  0.3425251D+01 0.6239137D+00 0.1688554D+00 0.3425251D+01 0.6239137D+00
EXPONENTS  0.1688554D+00
MO    1     MO 0.0        OCC NO =    2.0000000  ORB. ENERGY =  -18.937147
  0.42244297D+01  0.40856845D+01  0.12733294D+01 -0.68562319D-02  0.91707640D-02
  0.69213124D-02 -0.34552984D-02 -0.21727843D-02 -0.34420554D-03 -0.36306433D-02
 -0.22830459D-02 -0.36167283D-03 -0.48709902D-02 -0.30630094D-02 -0.48523214D-03
  0.48019041D-02  0.46441926D-02  0.14473920D-02 -0.59541286D-04  0.79641281D-04
  0.60106463D-04  0.67554121D-03  0.42479844D-03  0.67295210D-04 -0.72726120D-03
 -0.45732136D-03 -0.72447386D-04  0.55432246D-03  0.34857284D-03  0.55219794D-04
  0.93436225D-07  0.90367449D-07  0.28163587D-07  0.68381737D-07 -0.91466097D-07
 -0.69030828D-07 -0.26947759D-06 -0.16945474D-06 -0.26844478D-07 -0.96593204D-07
 -0.60740399D-07 -0.96222996D-08 -0.74263773D-07 -0.46699053D-07 -0.73979146D-08
 -0.83466176D-04 -0.80724851D-04 -0.25158410D-04 -0.47069448D-04  0.62959189D-04
  0.47516239D-04  0.14907762D-03  0.93744008D-04  0.14850626D-04 -0.12873840D-03
 -0.80954158D-04 -0.12824499D-04  0.11980624D-03  0.75337377D-04  0.11934706D-04
 -0.12190701D-05 -0.11790315D-05 -0.36745263D-06 -0.11586694D-05  0.15498139D-05
  0.11696676D-05  0.27429293D-05  0.17248275D-05  0.27324166D-06 -0.40655265D-05
 -0.25565121D-05 -0.40499448D-06 -0.12092133D-05 -0.76038579D-06 -0.12045788D-06
  0.22900504D-04  0.22148371D-04  0.69026798D-05  0.44743866D-05 -0.59848535D-05
 -0.45168582D-05 -0.48756798D-05 -0.30659583D-05 -0.48569930D-06  0.82784580D-04
  0.52057165D-04  0.82467296D-05 -0.14819069D-04 -0.93186281D-05 -0.14762272D-05
  0.10198414D-05  0.98634621D-06  0.30740103D-06  0.19721328D-06 -0.26378869D-06
 -0.19908526D-06 -0.42172731D-05 -0.26519345D-05 -0.42011098D-06 -0.20905157D-06
 -0.13145724D-06 -0.20825035D-07 -0.39564577D-06 -0.24879268D-06 -0.39412940D-07
 -0.57032312D-04 -0.55159169D-04 -0.17190704D-04 -0.54306936D-04  0.72639915D-04
  0.54822427D-04  0.12624248D-03  0.79384661D-04  0.12575864D-04 -0.18947376D-03
 -0.11914618D-03 -0.18874757D-04  0.13116044D-03  0.82477202D-04  0.13065775D-04
  0.27155716D-06  0.26263826D-06  0.81852875D-07  0.19596285D-06 -0.26211614D-06
 -0.19782296D-06 -0.50713404D-06 -0.31889950D-06 -0.50519038D-07  0.47398521D-06
  0.29805462D-06  0.47216859D-07  0.57191500D-06  0.35963550D-06  0.56972305D-07
  0.30125652D-06  0.29136219D-06  0.90804869D-07  0.33346500D-07 -0.44603637D-07
 -0.33663030D-07 -0.88241915D-06 -0.55488884D-06 -0.87903715D-07 -0.50949443D-06
 -0.32038377D-06 -0.50754172D-07  0.87770680D-06  0.55192559D-06  0.87434286D-07
  0.77241087D-06  0.74704217D-06  0.23282041D-06 -0.26028664D-06  0.34815441D-06
  0.26275732D-06 -0.29405009D-05 -0.18490659D-05 -0.29292310D-06 -0.38322158D-05
 -0.24098001D-05 -0.38175282D-06 -0.91709229D-06 -0.57669224D-06 -0.91357740D-07
 -0.83567464D-09 -0.80822813D-09 -0.25188941D-09 -0.76525623D-08  0.10235920D-07
  0.77252017D-08  0.40184547D-07  0.25269122D-07  0.40030534D-08  0.11115354D-07
  0.69896330D-08  0.11072753D-08 -0.43502748D-07 -0.27355695D-07 -0.43336018D-08
  0.16069864D-02  0.15542073D-02  0.48437853D-03  0.76972925D-03 -0.10295750D-02
 -0.77703565D-03 -0.29791880D-02 -0.18733934D-02 -0.29677698D-03  0.10923640D-02
  0.68690781D-03  0.10881774D-03 -0.29974519D-02 -0.18848782D-02 -0.29859637D-03
  0.39925005D-06  0.38613726D-06  0.12034212D-06  0.33390364D-06 -0.44662309D-06
 -0.33707311D-06 -0.92097124D-06 -0.57913143D-06 -0.91744149D-07 -0.81590707D-06
 -0.51306426D-06 -0.81277999D-07  0.47279537D-06  0.29730642D-06  0.47098331D-07
 -0.51283714D-08 -0.49599376D-08 -0.15457959D-08 -0.97573516D-08  0.13051246D-07
  0.98499701D-08  0.50989539D-07  0.32063590D-07  0.50794114D-08  0.57659066D-07
  0.36257568D-07  0.57438079D-08 -0.27579357D-07 -0.17342640D-07 -0.27473656D-08
 -0.12434921D-04 -0.12026514D-04 -0.37481392D-05 -0.51359387D-05 -0.49672563D-05
 -0.15480768D-05 -0.17714815D-04 -0.17132998D-04 -0.53396070D-05  0.76010194D-07
  0.73513750D-07  0.22911025D-07  0.48067536D-09  0.46488828D-09  0.14488537D-09
 -0.27038886D-05 -0.26150833D-05 -0.81500725D-06 -0.42014902D-09 -0.40634984D-09
 -0.12664150D-09  0.65530527D-07  0.63378273D-07  0.19752239D-07 -0.15097424D-03
 -0.14601571D-03 -0.45506720D-04  0.61743110D-05  0.59715248D-05  0.18610634D-05
 -0.50946032D-09 -0.49272784D-09 -0.15356175D-09 -0.17605400D-02 -0.17027177D-02
 -0.53066272D-03
MO    2     MO 0.0        OCC NO =    2.0000000  ORB. ENERGY =  -18.882176
 -0.51627851D-02 -0.49932210D-02 -0.15561689D-02 -0.64977672D-04  0.86912886D-04
  0.65594452D-04 -0.23816049D-03 -0.14976171D-03 -0.23724771D-04 -0.78061709D-03
 -0.49087297D-03 -0.77762526D-04 -0.46943172D-03 -0.29519126D-03 -0.46763255D-04
  0.42246252D+01  0.40858735D+01  0.12733883D+01 -0.69123597D-02  0.92458396D-02
  0.69779730D-02  0.39436900D-02  0.24798981D-02  0.39285753D-03  0.62466578D-02
  0.39280661D-02  0.62227166D-03  0.61538225D-02  0.38696887D-02  0.61302371D-03
 -0.56019637D-06 -0.54179754D-06 -0.16885463D-06 -0.44222455D-06  0.59151106D-06
  0.44642222D-06  0.24402716D-06  0.15345083D-06  0.24309189D-07 -0.11968959D-05
 -0.75264029D-06 -0.11923087D-06 -0.17546483D-06 -0.11033699D-06 -0.17479234D-07
 -0.11624639D-04 -0.11242845D-04 -0.35039037D-05 -0.76144408D-05  0.10184930D-04
  0.76867184D-05 -0.18679388D-04 -0.11746101D-04 -0.18607797D-05  0.26279062D-05
  0.16524979D-05  0.26178344D-06  0.17516925D-04  0.11015112D-04  0.17449789D-05
 -0.65149535D-05 -0.63009794D-05 -0.19637401D-05 -0.21340442D-05  0.28544565D-05
  0.21543009D-05  0.37107464D-05  0.23334169D-05  0.36965244D-06 -0.14906096D-04
 -0.93733531D-05 -0.14848966D-05  0.33351866D-05  0.20972549D-05  0.33224040D-06
 -0.25407943D-04 -0.24573456D-04 -0.76584730D-05 -0.40597865D-05  0.54302925D-05
  0.40983227D-05 -0.35345790D-04 -0.22226381D-04 -0.35210322D-05 -0.59562618D-04
 -0.37454572D-04 -0.59334335D-05 -0.11323154D-03 -0.71203032D-04 -0.11279756D-04
 -0.65689482D-05 -0.63532008D-05 -0.19800152D-05 -0.24052470D-05  0.32172121D-05
  0.24280780D-05 -0.15969996D-04 -0.10042362D-04 -0.15908789D-05 -0.12085687D-04
 -0.75998041D-05 -0.12039366D-05  0.86598001D-05  0.54455147D-05  0.86266102D-06
 -0.47202329D-04 -0.45652038D-04 -0.14227746D-04 -0.88547380D-05  0.11843927D-04
  0.89387887D-05 -0.28846124D-03 -0.18139217D-03 -0.28735567D-04 -0.51543580D-04
 -0.32411986D-04 -0.51346032D-05 -0.34877091D-03 -0.21931651D-03 -0.34743420D-04
 -0.87397769D-06 -0.84527317D-06 -0.26343473D-06  0.21210535D-06 -0.28370804D-06
 -0.21411869D-06 -0.27656630D-05 -0.17391231D-05 -0.27550632D-06 -0.43312548D-05
 -0.27236092D-05 -0.43146546D-06 -0.66223152D-06 -0.41642895D-06 -0.65969342D-07
 -0.70514226D-06 -0.68198289D-06 -0.21254428D-06 -0.56825588D-06  0.76008815D-06
  0.57364987D-06  0.25355895D-05  0.15944467D-05  0.25258715D-06 -0.69541853D-06
 -0.43729783D-06 -0.69275324D-07 -0.19071040D-05 -0.11992382D-05 -0.18997948D-06
 -0.17484037D-03 -0.16909800D-03 -0.52700460D-04 -0.10272967D-03  0.13740923D-03
  0.10370480D-03  0.37691873D-03  0.23701661D-03  0.37547414D-04 -0.20133219D-03
 -0.12660309D-03 -0.20056056D-04 -0.15328340D-03 -0.96388713D-04 -0.15269591D-04
 -0.43438677D-06 -0.42011997D-06 -0.13093305D-06  0.27631377D-06 -0.36959199D-06
 -0.27893659D-06  0.19319609D-05  0.12148689D-05  0.19245564D-06 -0.63574255D-06
 -0.39977198D-06 -0.63330597D-07 -0.47186120D-06 -0.29671899D-06 -0.47005273D-07
  0.18163396D-02  0.17566846D-02  0.54748185D-03  0.12514901D-02 -0.16739691D-02
 -0.12633695D-02  0.26566608D-02  0.16705796D-02  0.26464787D-03  0.41413001D-02
  0.26041606D-02  0.41254279D-03  0.39874009D-02  0.25073847D-02  0.39721186D-03
  0.53481488D-05  0.51724967D-05  0.16120413D-05  0.37004449D-05 -0.49496440D-05
 -0.37355702D-05 -0.22966367D-04 -0.14441868D-04 -0.22878345D-05  0.21574585D-04
  0.13566678D-04  0.21491897D-05  0.13466273D-04  0.84679539D-05  0.13414662D-05
 -0.10541726D-05 -0.10195499D-05 -0.31774916D-06  0.34249588D-06 -0.45811591D-06
 -0.34574691D-06  0.11877103D-05  0.74686410D-06  0.11831582D-06  0.54565295D-05
  0.34312122D-05  0.54356165D-06 -0.68745572D-07 -0.43229060D-07 -0.68482095D-08
 -0.57023641D-04 -0.55150783D-04 -0.17188090D-04  0.24907507D-05  0.24089456D-05
  0.75076313D-06  0.12846969D-04  0.12425029D-04  0.38723387D-05 -0.52692060D-07
 -0.50961467D-07 -0.15882463D-07 -0.47156198D-08 -0.45607422D-08 -0.14213841D-08
 -0.40496971D-03 -0.39166907D-03 -0.12206614D-03  0.34471589D-06  0.33339421D-06
  0.10390441D-06  0.86032003D-05  0.83206407D-05  0.25931803D-05 -0.13970291D-04
 -0.13511457D-04 -0.42109311D-05  0.22778574D-05  0.22030445D-05  0.68659274D-06
  0.40805865D-06  0.39465656D-06  0.12299721D-06 -0.39424209D-04 -0.38129379D-04
 -0.11883262D-04
MO    3     MO 0.0        OCC NO =    2.0000000  ORB. ENERGY =  -14.203212
  0.15726912D-06  0.15210384D-06  0.47404124D-07  0.60551643D-07 -0.80992715D-07
 -0.61126410D-07  0.26204507D-06  0.16478097D-06  0.26104075D-07 -0.62504157D-07
 -0.39304291D-07 -0.62264600D-08  0.13535603D-06  0.85115503D-07  0.13483726D-07
 -0.10303682D-05 -0.99652722D-06 -0.31057401D-06 -0.31327422D-06  0.41902957D-06
  0.31624787D-06 -0.15220932D-05 -0.95713306D-06 -0.15162596D-06  0.10255071D-06
  0.64486638D-07  0.10215767D-07 -0.11029669D-06 -0.69357520D-07 -0.10987396D-07
  0.34283876D+01  0.33157872D+01  0.10333860D+01 -0.71173986D-02  0.95200956D-02
  0.71849582D-02  0.83040792D-03  0.52218278D-03  0.82722526D-04 -0.85918171D-03
 -0.54027651D-03 -0.85588877D-04 -0.65553701D-03 -0.41221926D-03 -0.65302457D-04
  0.68757615D-05  0.66499371D-05  0.20724949D-05 -0.12432633D-06  0.16629651D-06
  0.12550646D-06 -0.13315024D-05 -0.83728444D-06 -0.13263992D-06  0.79507164D-06
  0.49996238D-06  0.79202441D-07 -0.13781554D-05 -0.86662109D-06 -0.13728734D-06
 -0.18666161D-04 -0.18053099D-04 -0.56263623D-05 -0.75712593D-04  0.10127171D-03
  0.76431270D-04 -0.34132797D-03 -0.21463619D-03 -0.34001978D-04  0.91502390D-04
  0.57539158D-04  0.91151694D-05  0.11868496D-03  0.74632289D-04  0.11823008D-04
  0.66650985D-05  0.64461931D-05  0.20089968D-05 -0.20597697D-05  0.27551084D-05
  0.20793214D-05  0.87406776D-05  0.54963726D-05  0.87071777D-06 -0.42296664D-04
 -0.26597277D-04 -0.42134556D-05 -0.16663780D-04 -0.10478632D-04 -0.16599914D-05
 -0.12062613D-04 -0.11666434D-04 -0.36359180D-05 -0.69041828D-04  0.92349023D-04
  0.69697185D-04 -0.18509198D-03 -0.11639080D-03 -0.18438259D-04  0.22214051D-03
  0.13968791D-03  0.22128912D-04  0.86072647D-04  0.54124790D-04  0.85742761D-05
  0.22510597D-06  0.21771269D-06  0.67851537D-07  0.16644853D-06 -0.22263836D-06
 -0.16802849D-06  0.22275327D-06  0.14007323D-06  0.22189953D-07  0.31638610D-05
  0.19895207D-05  0.31517350D-06  0.14084606D-05  0.88567783D-06  0.14030625D-06
  0.15792368D-02  0.15273691D-02  0.47601424D-03  0.10937712D-02 -0.14630073D-02
 -0.11041534D-02 -0.62088832D-03 -0.39043124D-03 -0.61850868D-04 -0.49497305D-02
 -0.31125234D-02 -0.49307600D-03 -0.48761693D-03 -0.30662661D-03 -0.48574807D-04
  0.15962642D-02  0.15438373D-02  0.48114665D-03  0.10999722D-02 -0.14713016D-02
 -0.11104133D-02  0.45733507D-02  0.28758456D-02  0.45558227D-03  0.11898092D-02
  0.74818398D-03  0.11852491D-03 -0.12929816D-02 -0.81306155D-03 -0.12880261D-03
  0.18152961D-04  0.17556754D-04  0.54716732D-05  0.61716649D-05 -0.82551004D-05
 -0.62302474D-05  0.68765334D-04  0.43241487D-04  0.68501780D-05 -0.24218673D-04
 -0.15229352D-04 -0.24125852D-05 -0.23969480D-04 -0.15072652D-04 -0.23877613D-05
 -0.53932578D-04 -0.52161241D-04 -0.16256381D-04 -0.24132059D-04  0.32278579D-04
  0.24361125D-04 -0.17857810D-03 -0.11229470D-03 -0.17789368D-04  0.39409074D-03
  0.24781483D-03  0.39258033D-04  0.10717066D-03  0.67391790D-04  0.10675992D-04
  0.93694261D-08  0.90617011D-08  0.28241364D-08 -0.75189020D-07  0.10057139D-06
  0.75902727D-07  0.18397178D-06  0.11568640D-06  0.18326669D-07  0.13066270D-06
  0.82164210D-07  0.13016191D-07  0.79942905D-06  0.50270244D-06  0.79636512D-07
  0.91362077D-05  0.88361423D-05  0.27538396D-05 -0.12922345D-05  0.17284681D-05
  0.13045006D-05  0.32523926D-05  0.20451918D-05  0.32399274D-06 -0.37925180D-04
 -0.23848371D-04 -0.37779826D-05 -0.63004072D-05 -0.39618651D-05 -0.62762599D-06
  0.85464943D-05  0.82657972D-05  0.25760880D-05 -0.77646493D-05  0.10385846D-04
  0.78383527D-05 -0.57914306D-04 -0.36418070D-04 -0.57692341D-05  0.13466509D-04
  0.84681023D-05  0.13414897D-05  0.20108869D-04  0.12644996D-04  0.20031799D-05
 -0.33440903D-05 -0.32342585D-05 -0.10079771D-05 -0.13300481D-04 -0.12863646D-04
 -0.40090366D-05  0.31001286D-07  0.29983094D-07  0.93444207D-08  0.75925810D-04
  0.73432138D-04  0.22885590D-04 -0.21262375D-02 -0.20564043D-02 -0.64089141D-03
 -0.58820177D-05 -0.56888314D-05 -0.17729603D-05 -0.28731847D-04 -0.27788191D-04
 -0.86603654D-05 -0.48892792D-05 -0.47286980D-05 -0.14737286D-05  0.10830584D-06
  0.10474870D-06  0.32645594D-07  0.21066186D-06  0.20374298D-06  0.63497789D-07
 -0.60795591D-05 -0.58798849D-05 -0.18325033D-05  0.17347470D-09  0.16777718D-09
  0.52288819D-10
MO    4     MO 0.0        OCC NO =    2.0000000  ORB. ENERGY =  -14.110951
 -0.18848864D-03 -0.18229801D-03 -0.56814327D-04 -0.48440394D-04  0.64792941D-04
  0.48900199D-04  0.13410484D-03  0.84328720D-04  0.13359086D-04  0.35571048D-03
  0.22368030D-03  0.35434717D-04  0.22829821D-04  0.14356004D-04  0.22742322D-05
 -0.25226005D-04 -0.24397494D-04 -0.76036332D-05 -0.97726780D-05  0.13071746D-04
  0.98654420D-05  0.50891105D-04  0.32001692D-04  0.50696057D-05  0.21944611D-04
  0.13799360D-04  0.21860505D-05  0.36083895D-04  0.22690522D-04  0.35945599D-05
 -0.81647607D-05 -0.78966011D-05 -0.24610257D-05 -0.38822570D-06  0.51928324D-06
  0.39191081D-06  0.11755905D-05  0.73924284D-06  0.11710849D-06  0.58871374D-06
  0.37019900D-06  0.58645741D-07 -0.10146345D-05 -0.63802940D-06 -0.10107458D-06
  0.34290294D+01  0.33164079D+01  0.10335795D+01 -0.67739174D-02  0.90606618D-02
  0.68382166D-02 -0.18194135D-02 -0.11440961D-02 -0.18124404D-03  0.59804364D-03
  0.37606589D-03  0.59575155D-04  0.62867837D-02  0.39532983D-02  0.62626887D-03
  0.26069282D-04  0.25213074D-04  0.78578140D-05  0.11574833D-04 -0.15482274D-04
 -0.11684703D-04 -0.53064956D-04 -0.33368668D-04 -0.52861577D-05  0.39421615D-04
  0.24789370D-04  0.39270526D-05 -0.39070188D-04 -0.24568382D-04 -0.38920446D-05
 -0.33909253D-04 -0.32795553D-04 -0.10220941D-04 -0.53660817D-04  0.71775678D-04
  0.54170175D-04  0.16516588D-03  0.10386074D-03  0.16453286D-04  0.95775357D-04
  0.60226115D-04  0.95408285D-05  0.88358588D-04  0.55562251D-04  0.88019941D-05
  0.17997872D-06  0.17406758D-06  0.54249262D-07 -0.15651857D-05  0.20935623D-05
  0.15800427D-05 -0.39528205D-06 -0.24856396D-06 -0.39376708D-07  0.74352175D-05
  0.46754643D-05  0.74067209D-06 -0.16169916D-05 -0.10168077D-05 -0.16107942D-06
  0.15723399D-02  0.15206987D-02  0.47393537D-03  0.90434999D-03 -0.12096412D-02
 -0.91293423D-03 -0.39069135D-02 -0.24567720D-02 -0.38919397D-03 -0.18184307D-02
 -0.11434780D-02 -0.18114613D-03  0.56956935D-03  0.35816049D-03  0.56738639D-04
  0.54474756D-06  0.52685612D-06  0.16419804D-06  0.47672424D-06 -0.63765718D-06
 -0.48124939D-06 -0.15908732D-05 -0.10003837D-05 -0.15847759D-06 -0.30465689D-06
 -0.19157643D-06 -0.30348925D-07  0.21478299D-05  0.13506131D-05  0.21395980D-06
  0.10115061D-05  0.97828466D-06  0.30488860D-06  0.13064389D-05 -0.17474676D-05
 -0.13188398D-05  0.51450364D-05  0.32353370D-05  0.51253173D-06  0.61816624D-07
  0.38871952D-07  0.61579702D-08  0.72805728D-05  0.45782195D-05  0.72526689D-06
 -0.37994165D-06 -0.36746303D-06 -0.11452218D-06 -0.80707594D-06  0.10795293D-05
  0.81473685D-06 -0.18344430D-05 -0.11535470D-05 -0.18274123D-06 -0.31823293D-05
 -0.20011341D-05 -0.31701326D-06 -0.28281966D-05 -0.17784459D-05 -0.28173572D-06
  0.14243957D-07  0.13776135D-07  0.42934196D-08  0.26397451D-07 -0.35308723D-07
 -0.26648020D-07 -0.55964399D-07 -0.35191916D-07 -0.55749908D-08 -0.12590736D-06
 -0.79173925D-07 -0.12542480D-07 -0.22658694D-06 -0.14248395D-06 -0.22571852D-07
  0.10927370D-04  0.10568477D-04  0.32937326D-05 -0.37749318D-04  0.50492763D-04
  0.38107642D-04  0.78247744D-04  0.49204281D-04  0.77947848D-05  0.21193450D-03
  0.13327010D-03  0.21112223D-04  0.46500837D-04  0.29240974D-04  0.46322616D-05
  0.33924693D-06  0.32810486D-06  0.10225595D-06  0.31821025D-06 -0.42563192D-06
 -0.32123076D-06 -0.87013057D-06 -0.54716145D-06 -0.86679567D-07 -0.64130117D-06
 -0.40326739D-06 -0.63884329D-07  0.81120414D-06  0.51010693D-06  0.80809508D-07
 -0.15191026D-07 -0.14692099D-07 -0.45788854D-08 -0.43979038D-08  0.58825516D-08
  0.44396495D-08  0.96491239D-07  0.60676280D-07  0.96121422D-08  0.99253279D-07
  0.62413125D-07  0.98872876D-08 -0.42148164D-07 -0.26503896D-07 -0.41986625D-08
  0.10761414D-06  0.10407971D-06  0.32437100D-07 -0.40519443D-04 -0.39188641D-04
 -0.12213388D-04  0.13004013D-03  0.12576916D-03  0.39196753D-04  0.24405125D-05
  0.23603574D-05  0.73562030D-06 -0.51276964D-07 -0.49592847D-07 -0.15455924D-07
 -0.33680114D-05 -0.32573940D-05 -0.10151874D-05  0.12974652D-07  0.12548518D-07
  0.39108251D-08  0.84168540D-07  0.81404148D-07  0.25370117D-07 -0.21597075D-02
 -0.20887751D-02 -0.65097997D-03 -0.21559544D-02 -0.20851453D-02 -0.64984870D-03
  0.87636708D-08  0.84758409D-08  0.26415494D-08  0.12488184D-04  0.12078028D-04
  0.37641938D-05
MO    5     MO 0.0        OCC NO =    2.0000000  ORB. ENERGY =  -10.105597
  0.26478441D-02  0.25608795D-02  0.79811429D-03  0.12936098D-02 -0.17303076D-02
 -0.13058890D-02  0.44184400D-02  0.27784336D-02  0.44015056D-03 -0.23261352D-02
 -0.14627362D-02 -0.23172199D-03  0.42292051D-02  0.26594376D-02  0.42129960D-03
  0.22758142D-02  0.22010684D-02  0.68597689D-03  0.17792687D-02 -0.23799156D-02
 -0.17961578D-02 -0.23553078D-02 -0.14810807D-02 -0.23462807D-03 -0.33513918D-02
 -0.21074451D-02 -0.33385471D-03 -0.33629062D-02 -0.21146857D-02 -0.33500174D-03
  0.85250269D-07  0.82450349D-07  0.25696172D-07  0.12121632D-07 -0.16213662D-07
 -0.12236692D-07 -0.14016299D-06 -0.88138250D-07 -0.13962580D-07 -0.12852092D-05
 -0.80817403D-06 -0.12802834D-06 -0.39018572D-06 -0.24535925D-06 -0.38869027D-07
  0.45037216D-04  0.43558035D-04  0.13575137D-04 -0.58066597D-04  0.77668764D-04
  0.58617775D-04 -0.11807482D-03 -0.74248616D-04 -0.11762228D-04  0.23945201D-03
  0.15057385D-03  0.23853427D-04  0.21586011D-03  0.13573863D-03  0.21503280D-04
  0.88123860D-04  0.85229561D-04  0.26562331D-04 -0.74402432D-05  0.99519264D-05
  0.75108673D-05  0.73951772D-05  0.46502858D-05  0.73668341D-06 -0.10326525D-04
 -0.64935958D-05 -0.10286947D-05  0.19447892D-06  0.12229356D-06  0.19373355D-07
 -0.51492499D-03 -0.49801303D-03 -0.15520891D-03 -0.56874773D-04  0.76074604D-04
  0.57414638D-04  0.10223377D-03  0.64287340D-04  0.10184195D-04  0.65821825D-04
  0.41390530D-04  0.65569553D-05 -0.65408615D-04 -0.41130692D-04 -0.65157927D-05
 -0.58984247D-04 -0.57046995D-04 -0.17779057D-04 -0.42378382D-06  0.56684509D-06
  0.42780645D-06 -0.38678998D-04 -0.24322392D-04 -0.38530755D-05 -0.51955788D-05
 -0.32671194D-05 -0.51756660D-06 -0.22766490D-05 -0.14316180D-05 -0.22679234D-06
 -0.25618875D-01 -0.24777460D-01 -0.77220521D-02  0.10921433D-02 -0.14608299D-02
 -0.11025101D-02 -0.53275618D-03 -0.33501138D-03 -0.53071432D-04  0.44314224D-02
  0.27865973D-02  0.44144383D-03  0.50640229D-03  0.31843935D-03  0.50446143D-04
 -0.20875034D-04 -0.20189424D-04 -0.62921615D-05  0.20148406D-05 -0.26950120D-05
 -0.20339658D-05 -0.57384608D-05 -0.36084981D-05 -0.57164673D-06  0.29375380D-05
  0.18472027D-05  0.29262794D-06  0.56385139D-05  0.35456489D-05  0.56169035D-06
 -0.38294964D-04 -0.37037222D-04 -0.11542884D-04  0.15719083D-05 -0.21025543D-05
 -0.15868291D-05 -0.71908573D-05 -0.45218041D-05 -0.71632973D-06  0.36828623D-05
  0.23158827D-05  0.36687472D-06  0.19495402D-05  0.12259232D-05  0.19420683D-06
  0.11667854D-03  0.11284640D-03  0.35169295D-04 -0.26687928D-04  0.35697260D-04
  0.26941255D-04  0.47328619D-04  0.29761506D-04  0.47147225D-05 -0.86376422D-04
 -0.54315812D-04 -0.86045372D-05 -0.79960776D-04 -0.50281482D-04 -0.79654315D-05
  0.13398023D-05  0.12957985D-05  0.40384378D-06 -0.75327118D-08  0.10075611D-07
  0.76042136D-08  0.84176800D-06  0.52932630D-06  0.83854180D-07 -0.80230814D-07
 -0.50451289D-07 -0.79923318D-08 -0.31212006D-06 -0.19626947D-06 -0.31092381D-07
  0.26840089D+01  0.25958566D+01  0.80901511D+00 -0.60227295D-02  0.80558873D-02
  0.60798983D-02 -0.66133301D-04 -0.41586394D-04 -0.65879836D-05 -0.41741326D-03
 -0.26248066D-03 -0.41581347D-04 -0.30050721D-03 -0.18896700D-03 -0.29935548D-04
 -0.18790540D-04 -0.18173392D-04 -0.56638525D-05  0.41527777D-05 -0.55546756D-05
 -0.41921966D-05 -0.11793646D-04 -0.74161610D-05 -0.11748445D-05 -0.38310571D-05
 -0.24090715D-05 -0.38163740D-06  0.13788233D-04  0.86704107D-05  0.13735387D-05
  0.31261497D-05  0.30234759D-05  0.94228538D-06 -0.52867218D-07  0.70714175D-07
  0.53369043D-07  0.64842839D-06  0.40774917D-06  0.64594320D-07  0.18103419D-05
  0.11383915D-05  0.18034035D-06 -0.82995680D-06 -0.52189911D-06 -0.82677587D-07
 -0.14233355D-03 -0.13765881D-03 -0.42902239D-04 -0.36462183D-04 -0.35264636D-04
 -0.10990447D-04 -0.25967652D-04 -0.25114782D-04 -0.78271807D-05  0.30059883D-06
  0.29072610D-06  0.90606627D-07 -0.45128391D-08 -0.43646215D-08 -0.13602619D-08
 -0.12970370D-03 -0.12544377D-03 -0.39095344D-04  0.66938340D-07  0.64739848D-07
  0.20176583D-07  0.26054354D-05  0.25198637D-05  0.78533145D-06 -0.10318998D-03
 -0.99800857D-04 -0.31103568D-04 -0.47672731D-04 -0.46106990D-04 -0.14369535D-04