 opt tyrosine pbe0
GAUSSIAN             76 MOL ORBITALS    228 PRIMITIVES       24 NUCLEI
  O    1    (CENTRE  1)  -3.11932483 -2.70859297 -2.82664419  CHARGE =  8.0
  O    2    (CENTRE  2)   8.06038130 -0.90065009 -0.72085887  CHARGE =  8.0
  O    3    (CENTRE  3)  -4.81645365 -3.09655562  1.19566995  CHARGE =  8.0
  N    4    (CENTRE  4)  -6.68172204  2.08141850 -0.17997138  CHARGE =  7.0
  C    5    (CENTRE  5)  -2.10984587  2.20258690  1.45751730  CHARGE =  6.0
  C    6    (CENTRE  6)  -4.01386256  1.20707139 -0.57310959  CHARGE =  6.0
  C    7    (CENTRE  7)   0.59942227  1.36998358  0.93604461  CHARGE =  6.0
  C    8    (CENTRE  8)   1.62129022 -0.76136840  2.12718439  CHARGE =  6.0
  C    9    (CENTRE  9)   2.11347430  2.69317839 -0.79924390  CHARGE =  6.0
  C   10    (CENTRE 10)  -4.05805097 -1.73232242 -0.55479636  CHARGE =  6.0
  C   11    (CENTRE 11)   4.08091732 -1.55984029  1.61994799  CHARGE =  6.0
  C   12    (CENTRE 12)   4.56955181  1.92650400 -1.32970365  CHARGE =  6.0
  C   13    (CENTRE 13)   5.58065129 -0.22067757 -0.11803191  CHARGE =  6.0
  H   14    (CENTRE 14)  -2.71318051  1.50927372  3.31705942  CHARGE =  1.0
  H   15    (CENTRE 15)  -2.21895069  4.27518208  1.47846397  CHARGE =  1.0
  H   16    (CENTRE 16)  -3.39417886  1.83490875 -2.45793075  CHARGE =  1.0
  H   17    (CENTRE 17)   0.47712547 -1.81543999  3.48464919  CHARGE =  1.0
  H   18    (CENTRE 18)   1.35041045  4.36247487 -1.74425403  CHARGE =  1.0
  H   19    (CENTRE 19)  -6.55514602  4.04456438  0.08192865  CHARGE =  1.0
  H   20    (CENTRE 20)  -7.16927842  1.42319635  1.62840149  CHARGE =  1.0
  H   21    (CENTRE 21)   4.85393057 -3.22085780  2.56963264  CHARGE =  1.0
  H   22    (CENTRE 22)   5.74194192  2.96189266 -2.67276380  CHARGE =  1.0
  H   23    (CENTRE 23)  -3.26451312 -4.59894691 -2.55593517  CHARGE =  1.0
  H   24    (CENTRE 24)   8.36578396 -2.45048167  0.35035971  CHARGE =  1.0
CENTRE ASSIGNMENTS    1  1  1  1  1  1  1  1  1  1  1  1  1  1  1  2  2  2  2  2
CENTRE ASSIGNMENTS    2  2  2  2  2  2  2  2  2  2  3  3  3  3  3  3  3  3  3  3
CENTRE ASSIGNMENTS    3  3  3  3  3  4  4  4  4  4  4  4  4  4  4  4  4  4  4  4
CENTRE ASSIGNMENTS    5  5  5  5  5  5  5  5  5  5  5  5  5  5  5  6  6  6  6  6
CENTRE ASSIGNMENTS    6  6  6  6  6  6  6  6  6  6  7  7  7  7  7  7  7  7  7  7
CENTRE ASSIGNMENTS    7  7  7  7  7  8  8  8  8  8  8  8  8  8  8  8  8  8  8  8
CENTRE ASSIGNMENTS    9  9  9  9  9  9  9  9  9  9  9  9  9  9  9 10 10 10 10 10
CENTRE ASSIGNMENTS   10 10 10 10 10 10 10 10 10 10 11 11 11 11 11 11 11 11 11 11
CENTRE ASSIGNMENTS   11 11 11 11 11 12 12 12 12 12 12 12 12 12 12 12 12 12 12 12
CENTRE ASSIGNMENTS   13 13 13 13 13 13 13 13 13 13 13 13 13 13 13 14 14 14 15 15
CENTRE ASSIGNMENTS   15 16 16 16 17 17 17 18 18 18 19 19 19 20 20 20 21 21 21 22
CENTRE ASSIGNMENTS   22 22 23 23 23 24 24 24
TYPE ASSIGNMENTS      1  1  1  1  1  1  2  2  2  3  3  3  4  4  4  1  1  1  1  1
TYPE ASSIGNMENTS      1  2  2  2  3  3  3  4  4  4  1  1  1  1  1  1  2  2  2  3
TYPE ASSIGNMENTS      3  3  4  4  4  1  1  1  1  1  1  2  2  2  3  3  3  4  4  4
TYPE ASSIGNMENTS      1  1  1  1  1  1  2  2  2  3  3  3  4  4  4  1  1  1  1  1
TYPE ASSIGNMENTS      1  2  2  2  3  3  3  4  4  4  1  1  1  1  1  1  2  2  2  3
TYPE ASSIGNMENTS      3  3  4  4  4  1  1  1  1  1  1  2  2  2  3  3  3  4  4  4
TYPE ASSIGNMENTS      1  1  1  1  1  1  2  2  2  3  3  3  4  4  4  1  1  1  1  1
TYPE ASSIGNMENTS      1  2  2  2  3  3  3  4  4  4  1  1  1  1  1  1  2  2  2  3
TYPE ASSIGNMENTS      3  3  4  4  4  1  1  1  1  1  1  2  2  2  3  3  3  4  4  4
TYPE ASSIGNMENTS      1  1  1  1  1  1  2  2  2  3  3  3  4  4  4  1  1  1  1  1
TYPE ASSIGNMENTS      1  1  1  1  1  1  1  1  1  1  1  1  1  1  1  1  1  1  1  1
TYPE ASSIGNMENTS      1  1  1  1  1  1  1  1
EXPONENTS  0.1307093D+03 0.2380887D+02 0.6443608D+01 0.5033151D+01 0.1169596D+01
EXPONENTS  0.3803890D+00 0.5033151D+01 0.1169596D+01 0.3803890D+00 0.5033151D+01
EXPONENTS  0.1169596D+01 0.3803890D+00 0.5033151D+01 0.1169596D+01 0.3803890D+00
EXPONENTS  0.1307093D+03 0.2380887D+02 0.6443608D+01 0.5033151D+01 0.1169596D+01
EXPONENTS  0.3803890D+00 0.5033151D+01 0.1169596D+01 0.3803890D+00 0.5033151D+01
EXPONENTS  0.1169596D+01 0.3803890D+00 0.5033151D+01 0.1169596D+01 0.3803890D+00
EXPONENTS  0.1307093D+03 0.2380887D+02 0.6443608D+01 0.5033151D+01 0.1169596D+01
EXPONENTS  0.3803890D+00 0.5033151D+01 0.1169596D+01 0.3803890D+00 0.5033151D+01
EXPONENTS  0.1169596D+01 0.3803890D+00 0.5033151D+01 0.1169596D+01 0.3803890D+00
EXPONENTS  0.9910617D+02 0.1805231D+02 0.4885660D+01 0.3780456D+01 0.8784966D+00
EXPONENTS  0.2857144D+00 0.3780456D+01 0.8784966D+00 0.2857144D+00 0.3780456D+01
EXPONENTS  0.8784966D+00 0.2857144D+00 0.3780456D+01 0.8784966D+00 0.2857144D+00
EXPONENTS  0.7161684D+02 0.1304510D+02 0.3530512D+01 0.2941249D+01 0.6834831D+00
EXPONENTS  0.2222899D+00 0.2941249D+01 0.6834831D+00 0.2222899D+00 0.2941249D+01
EXPONENTS  0.6834831D+00 0.2222899D+00 0.2941249D+01 0.6834831D+00 0.2222899D+00
EXPONENTS  0.7161684D+02 0.1304510D+02 0.3530512D+01 0.2941249D+01 0.6834831D+00
EXPONENTS  0.2222899D+00 0.2941249D+01 0.6834831D+00 0.2222899D+00 0.2941249D+01
EXPONENTS  0.6834831D+00 0.2222899D+00 0.2941249D+01 0.6834831D+00 0.2222899D+00
EXPONENTS  0.7161684D+02 0.1304510D+02 0.3530512D+01 0.2941249D+01 0.6834831D+00
EXPONENTS  0.2222899D+00 0.2941249D+01 0.6834831D+00 0.2222899D+00 0.2941249D+01
EXPONENTS  0.6834831D+00 0.2222899D+00 0.2941249D+01 0.6834831D+00 0.2222899D+00
EXPONENTS  0.7161684D+02 0.1304510D+02 0.3530512D+01 0.2941249D+01 0.6834831D+00
EXPONENTS  0.2222899D+00 0.2941249D+01 0.6834831D+00 0.2222899D+00 0.2941249D+01
EXPONENTS  0.6834831D+00 0.2222899D+00 0.2941249D+01 0.6834831D+00 0.2222899D+00
EXPONENTS  0.7161684D+02 0.1304510D+02 0.3530512D+01 0.2941249D+01 0.6834831D+00
EXPONENTS  0.2222899D+00 0.2941249D+01 0.6834831D+00 0.2222899D+00 0.2941249D+01
EXPONENTS  0.6834831D+00 0.2222899D+00 0.2941249D+01 0.6834831D+00 0.2222899D+00
EXPONENTS  0.7161684D+02 0.1304510D+02 0.3530512D+01 0.2941249D+01 0.6834831D+00
EXPONENTS  0.2222899D+00 0.2941249D+01 0.6834831D+00 0.2222899D+00 0.2941249D+01
EXPONENTS  0.6834831D+00 0.2222899D+00 0.2941249D+01 0.6834831D+00 0.2222899D+00
EXPONENTS  0.7161684D+02 0.1304510D+02 0.3530512D+01 0.2941249D+01 0.6834831D+00
EXPONENTS  0.2222899D+00 0.2941249D+01 0.6834831D+00 0.2222899D+00 0.2941249D+01
EXPONENTS  0.6834831D+00 0.2222899D+00 0.2941249D+01 0.6834831D+00 0.2222899D+00
EXPONENTS  0.7161684D+02 0.1304510D+02 0.3530512D+01 0.2941249D+01 0.6834831D+00
EXPONENTS  0.2222899D+00 0.2941249D+01 0.6834831D+00 0.2222899D+00 0.2941249D+01
EXPONENTS  0.6834831D+00 0.2222899D+00 0.2941249D+01 0.6834831D+00 0.2222899D+00
EXPONENTS  0.7161684D+02 0.1304510D+02 0.3530512D+01 0.2941249D+01 0.6834831D+00
EXPONENTS  0.2222899D+00 0.2941249D+01 0.6834831D+00 0.2222899D+00 0.2941249D+01
EXPONENTS  0.6834831D+00 0.2222899D+00 0.2941249D+01 0.6834831D+00 0.2222899D+00
EXPONENTS  0.3425251D+01 0.6239137D+00 0.1688554D+00 0.3425251D+01 0.6239137D+00
EXPONENTS  0.1688554D+00 0.3425251D+01 0.6239137D+00 0.1688554D+00 0.3425251D+01
EXPONENTS  0.6239137D+00 0.1688554D+00 0.3425251D+01 0.6239137D+00 0.1688554D+00
EXPONENTS  0.3425251D+01 0.6239137D+00 0.1688554D+00 0.3425251D+01 0.6239137D+00
EXPONENTS  0.1688554D+00 0.3425251D+01 0.6239137D+00 0.1688554D+00 0.3425251D+01
EXPONENTS  0.6239137D+00 0.1688554D+00 0.3425251D+01 0.6239137D+00 0.1688554D+00
EXPONENTS  0.3425251D+01 0.6239137D+00 0.1688554D+00
MO    1     MO 0.0        OCC NO =    2.0000005  ORB. ENERGY =    0.000000
 -0.78367799D-01 -0.75793923D-01 -0.23621655D-01 -0.16335856D-03  0.21850528D-03
  0.16490919D-03 -0.56474252D-03 -0.35512525D-03 -0.56257806D-04  0.10083720D-02
  0.63409137D-03  0.10045073D-03  0.74969422D-03  0.47142784D-03  0.74682090D-04
  0.15837596D-01  0.15317433D-01  0.47737749D-02  0.80521162D-05 -0.10770356D-04
 -0.81285483D-05 -0.22305953D-03 -0.14026582D-03 -0.22220462D-04 -0.26574965D-03
 -0.16711051D-03 -0.26473112D-04 -0.20931695D-03 -0.13162412D-03 -0.20851472D-04
 -0.19701369D+01 -0.19054306D+01 -0.59383950D+00 -0.55712347D-04  0.74519765D-04
  0.56241178D-04 -0.35391266D-02 -0.22254978D-02 -0.35255624D-03 -0.67238578D-02
 -0.42281422D-02 -0.66980877D-03  0.78446937D-02  0.49329539D-02  0.78146277D-03
  0.29125398D+01  0.28168817D+01  0.87789897D+00 -0.24432958D-02  0.32681055D-02
  0.24664880D-02  0.12571249D-01  0.79051387D-02  0.12523068D-02  0.60116886D-02
  0.37803111D-02  0.59886479D-03  0.15010505D-01  0.94390081D-02  0.14952975D-02
  0.68131266D-01  0.65893595D-01  0.20536155D-01 -0.90260209D-04  0.12073032D-03
  0.91116975D-04 -0.24356408D-04 -0.15315963D-04 -0.24263059D-05  0.31135792D-03
  0.19579022D-03  0.31016460D-04  0.39944826D-03  0.25118378D-03  0.39791731D-04
 -0.42892158D-01 -0.41483428D-01 -0.12928573D-01  0.40988191D-03 -0.54825016D-03
 -0.41377258D-03  0.32959482D-02  0.20725807D-02  0.32833160D-03 -0.19349961D-02
 -0.12167775D-02 -0.19275800D-03  0.64725269D-03  0.40700986D-03  0.64477200D-04
 -0.22532025D-01 -0.21791994D-01 -0.67916127D-02  0.40681764D-04 -0.54415146D-04
 -0.41067922D-04 -0.17556784D-03 -0.11040177D-03 -0.17489495D-04  0.19782389D-03
  0.12439697D-03  0.19706570D-04  0.25888073D-03  0.16279115D-03  0.25788853D-04
  0.13004985D-01  0.12577856D-01  0.39199682D-02 -0.15067778D-04  0.20154370D-04
  0.15210804D-04 -0.55078820D-04 -0.34635040D-04 -0.54867723D-05 -0.11571455D-03
 -0.72764416D-04 -0.11527106D-04 -0.15649706D-03 -0.98409550D-04 -0.15589726D-04
  0.18505621D-01  0.17897831D-01  0.55779720D-02 -0.39008815D-04  0.52177442D-04
  0.39379094D-04 -0.46392504D-04 -0.29172851D-04 -0.46214698D-05 -0.11270741D-03
 -0.70873441D-04 -0.11227544D-04 -0.11615121D-03 -0.73038998D-04 -0.11570604D-04
 -0.70524768D+00 -0.68208485D+00 -0.21257606D+00  0.10920972D-02 -0.14607682D-02
 -0.11024635D-02 -0.43277002D-03 -0.27213740D-03 -0.43111137D-04 -0.12395909D-03
 -0.77948800D-04 -0.12348400D-04  0.12042996D-02  0.75729590D-03  0.11996839D-03
  0.21570879D-01  0.20862415D-01  0.65019035D-02 -0.58212337D-04  0.77863704D-04
  0.58764899D-04 -0.73109100D-04 -0.45972964D-04 -0.72828899D-05  0.29898356D-04
  0.18800889D-04  0.29783767D-05 -0.20027758D-04 -0.12593991D-04 -0.19950998D-05
  0.21332733D-01  0.20632091D-01  0.64301214D-02 -0.54165948D-04  0.72451331D-04
  0.54680100D-04 -0.68461929D-04 -0.43050698D-04 -0.68199539D-05 -0.22967674D-04
 -0.14442690D-04 -0.22879647D-05  0.71994119D-05  0.45271834D-05  0.71718191D-06
  0.27271480D-02  0.26375788D-02  0.82201810D-03  0.69747865D-05 -0.93293404D-05
 -0.70409924D-05  0.20784171D-04  0.13069644D-04  0.20704512D-05  0.46203934D-04
  0.29054273D-04  0.46026850D-05  0.74517006D-04  0.46858293D-04  0.74231409D-05
 -0.15637358D-04 -0.15123772D-04 -0.47134192D-05  0.21815035D-04  0.21098552D-04
  0.65754971D-05  0.16922776D-03  0.16366972D-03  0.51008704D-04 -0.12776350D-04
 -0.12356730D-04 -0.38510530D-05 -0.49765308D-04 -0.48130840D-04 -0.15000280D-04
 -0.14000911D-02 -0.13541072D-02 -0.42201606D-03 -0.13988593D-02 -0.13529158D-02
 -0.42164476D-03 -0.41680581D-04 -0.40311643D-04 -0.12563378D-04 -0.38121720D-04
 -0.36869667D-04 -0.11490665D-04  0.29817474D-03  0.28838163D-03  0.89875958D-04
 -0.11626555D-04 -0.11244698D-04 -0.35044812D-05
MO    2     MO 0.0        OCC NO =    2.0000005  ORB. ENERGY =    0.000000
  0.11703318D+00  0.11318940D+00  0.35276191D-01  0.21057764D-03 -0.28166460D-03
 -0.21257647D-03  0.23570649D-03  0.14821856D-03  0.23480311D-04 -0.15333778D-02
 -0.96422908D-03 -0.15275009D-03 -0.11515269D-02 -0.72411099D-03 -0.11471135D-03
  0.19563116D-01  0.18920594D-01  0.58967227D-02  0.82808322D-05 -0.11076282D-04
 -0.83594353D-05 -0.17291860D-03 -0.10873586D-03 -0.17225587D-04 -0.17111999D-03
 -0.10760484D-03 -0.17046414D-04 -0.64021677D-04 -0.40258548D-04 -0.63776305D-05
  0.32076321D+01  0.31022821D+01  0.96684583D+00 -0.18341631D-03  0.24533414D-03
  0.18515733D-03  0.54925339D-02  0.34538527D-02  0.54714830D-03  0.96581163D-02
  0.60732827D-02  0.96211001D-03 -0.13064878D-01 -0.82155460D-02 -0.13014805D-02
  0.18311463D+01  0.17710050D+01  0.55194489D+00 -0.17075515D-02  0.22839880D-02
  0.17237598D-02  0.75446390D-02  0.47442715D-02  0.75157231D-03  0.33746300D-02
  0.21220579D-02  0.33616962D-03  0.91298095D-02  0.57410692D-02  0.90948182D-03
  0.68500469D-01  0.66250671D-01  0.20647441D-01 -0.16463184D-03  0.22020839D-03
  0.16619456D-03 -0.78365595D-04 -0.49278389D-04 -0.78065247D-05  0.54288853D-04
  0.34138287D-04  0.54080783D-05  0.21932256D-03  0.13791591D-03  0.21848198D-04
 -0.33080991D-01 -0.31994494D-01 -0.99712863D-02  0.97788139D-03 -0.13079954D-02
 -0.98716361D-03  0.19532608D-02  0.12282628D-02  0.19457746D-03  0.23936763D-02
  0.15052079D-02  0.23845022D-03  0.67651560D-03  0.42541116D-03  0.67392275D-04
 -0.13721454D-01 -0.13270793D-01 -0.41359265D-02  0.42816204D-04 -0.57270132D-04
 -0.43222623D-04 -0.82556601D-04 -0.51913806D-04 -0.82240191D-05  0.19152304D-03
  0.12043483D-03  0.19078900D-04  0.17197525D-03  0.10814265D-03  0.17131613D-04
  0.27272361D-01  0.26376640D-01  0.82204467D-02 -0.66120209D-04  0.88441121D-04
  0.66747834D-04 -0.23588405D-05 -0.14833022D-05 -0.23497999D-06 -0.55189030D-04
 -0.34704343D-04 -0.54977510D-05 -0.42454182D-04 -0.26696329D-04 -0.42291470D-05
  0.12720484D-01  0.12302698D-01  0.38342136D-02 -0.27179089D-04  0.36354227D-04
  0.27437078D-04 -0.37124974D-04 -0.23345180D-04 -0.36982688D-05 -0.83558052D-04
 -0.52543546D-04 -0.83237804D-05 -0.70971531D-04 -0.44628803D-04 -0.70699522D-05
  0.10258792D+01  0.99218574D+00  0.30922096D+00 -0.16078959D-02  0.21506907D-02
  0.16231583D-02  0.89229018D-03  0.56109601D-03  0.88887035D-04  0.91116323D-03
  0.57296389D-03  0.90767107D-04 -0.20278212D-02 -0.12751484D-02 -0.20200493D-03
  0.23343540D-01  0.22576856D-01  0.70362198D-02 -0.54630753D-04  0.73073046D-04
  0.55149318D-04 -0.41348564D-04 -0.26001086D-04 -0.41190089D-05  0.20966656D-04
  0.13184396D-04  0.20886298D-05 -0.31188159D-04 -0.19611951D-04 -0.31068626D-05
  0.14570003D-01  0.14091473D-01  0.43916965D-02 -0.36587285D-04  0.48938450D-04
  0.36934578D-04 -0.42924904D-04 -0.26992332D-04 -0.42760388D-05 -0.55530833D-05
 -0.34919278D-05 -0.55318003D-06  0.10521479D-04  0.66161885D-05  0.10481154D-05
  0.31857354D-02  0.30811046D-02  0.96024572D-03  0.62717760D-05 -0.83890071D-05
 -0.63313088D-05  0.77003185D-05  0.48421669D-05  0.76708059D-06  0.29367214D-04
  0.18466892D-04  0.29254660D-05  0.41103506D-04  0.25846987D-04  0.40945971D-05
 -0.51569898D-04 -0.49876160D-04 -0.15544221D-04 -0.12964875D-03 -0.12539063D-03
 -0.39078781D-04  0.23791955D-03  0.23010543D-03  0.71713812D-04 -0.10111068D-03
 -0.97789843D-04 -0.30476823D-04 -0.34291066D-04 -0.33164826D-04 -0.10336028D-04
 -0.10062081D-02 -0.97316071D-03 -0.30329169D-03 -0.96694701D-03 -0.93518905D-03
 -0.29145758D-03 -0.36799279D-04 -0.35590660D-04 -0.11092054D-04 -0.25146001D-04
 -0.24320117D-04 -0.75795183D-05 -0.39110939D-03 -0.37826397D-03 -0.11788836D-03
 -0.12041741D-04 -0.11646247D-04 -0.36296266D-05
MO    3     MO 0.0        OCC NO =    2.0000003  ORB. ENERGY =    0.000000
  0.42019404D+01  0.40639338D+01  0.12665507D+01 -0.51226335D-03  0.68519361D-03
  0.51712584D-03 -0.76688985D-02 -0.48224092D-02 -0.76395063D-03 -0.10325402D-01
 -0.64928897D-02 -0.10285828D-02  0.17775917D-01  0.11177974D-01  0.17707788D-02
  0.28557146D-01  0.27619228D-01  0.86077071D-02 -0.33251316D-05  0.44476321D-05
  0.33566943D-05 -0.94392685D-04 -0.59356654D-04 -0.94030912D-05 -0.57578106D-04
 -0.36206658D-04 -0.57357429D-05  0.10406923D-03  0.65441523D-04  0.10367037D-04
 -0.41054916D+00 -0.39706528D+00 -0.12374790D+00 -0.60594074D-04  0.81049470D-04
  0.61169244D-04 -0.77684529D-03 -0.48850116D-03 -0.77386792D-04 -0.13568207D-02
 -0.85320528D-03 -0.13516205D-03  0.18218566D-02  0.11456323D-02  0.18148741D-03
  0.15378823D-01  0.14873728D-01  0.46354913D-02  0.19634599D-05 -0.26262862D-05
 -0.19820974D-05 -0.43343947D-04 -0.27255837D-04 -0.43177825D-05  0.83169385D-04
  0.52299141D-04  0.82850627D-05  0.70956489D-04  0.44619344D-04  0.70684538D-05
  0.42488668D-02  0.41093190D-02  0.12806953D-02  0.10399883D-04 -0.13910683D-04
 -0.10498600D-04  0.51296171D-04  0.32256409D-04  0.51099571D-05  0.51187525D-04
  0.32188089D-04  0.50991341D-05  0.48708799D-04  0.30629400D-04  0.48522116D-05
  0.77541976D-01  0.74995223D-01  0.23372735D-01 -0.13370490D-03  0.17884110D-03
  0.13497405D-03  0.13383597D-03  0.84159652D-04  0.13332303D-04  0.51227121D-03
  0.32212988D-03  0.51030785D-04 -0.33953694D-03 -0.21350994D-03 -0.33823561D-04
  0.98306444D-03  0.95077713D-03  0.29631570D-03 -0.42703445D-06  0.57119307D-06
  0.43108793D-06 -0.13272768D-07 -0.83462725D-08 -0.13221898D-08  0.74371328D-05
  0.46766687D-05  0.74086289D-06  0.48683235D-05  0.30613325D-05  0.48496650D-06
  0.41803911D-02  0.40430923D-02  0.12600553D-02 -0.98065727D-05  0.13117083D-04
  0.98996584D-05  0.77558852D-05  0.48771087D-05  0.77261596D-06  0.44856263D-05
  0.28206822D-05  0.44684345D-06 -0.87490173D-05 -0.55016169D-05 -0.87154854D-06
  0.36170202D-04  0.34982244D-04  0.10902438D-04  0.91442047D-06 -0.12231113D-05
 -0.92310031D-06 -0.17727725D-05 -0.11147669D-05 -0.17659781D-06  0.17842358D-05
  0.11219753D-05  0.17773975D-06  0.31890247D-05  0.20053443D-05  0.31768023D-06
  0.30540008D+00  0.29536967D+00  0.92053823D-01 -0.20003757D-03  0.26756642D-03
  0.20193637D-03 -0.17950988D-02 -0.11288063D-02 -0.17882188D-03 -0.70028267D-03
 -0.44035654D-03 -0.69759874D-04  0.42448659D-02  0.26692856D-02  0.42285968D-03
  0.32778563D-02  0.31702000D-02  0.98801285D-03 -0.59235636D-05  0.79232448D-05
  0.59797911D-05  0.48408822D-05  0.30440766D-05  0.48223288D-06  0.78340325D-08
  0.49262498D-08  0.78040074D-09  0.20545390D-05  0.12919492D-05  0.20466647D-06
  0.17773430D-02  0.17189688D-02  0.53572750D-03 -0.44372630D-05  0.59351977D-05
  0.44793823D-05  0.27528184D-06  0.17310461D-06  0.27422678D-07 -0.16604447D-05
 -0.10441322D-05 -0.16540808D-06 -0.24943327D-05 -0.15685033D-05 -0.24847728D-06
  0.16353700D-02  0.15816587D-02  0.49293392D-03  0.21757261D-05 -0.29102094D-05
 -0.21963784D-05 -0.20898605D-04 -0.13141604D-04 -0.20818508D-05  0.49380500D-06
  0.31051783D-06  0.49191242D-07  0.88121974D-05  0.55413462D-05  0.87784234D-06
 -0.28863958D-05 -0.27915964D-05 -0.87001865D-06 -0.22256803D-04 -0.21525811D-04
 -0.67086549D-05 -0.26411566D-03 -0.25544117D-03 -0.79609855D-04 -0.45154011D-05
 -0.43670993D-05 -0.13610341D-05  0.13636761D-05  0.13188881D-05  0.41103982D-06
 -0.31227025D-04 -0.30201419D-04 -0.94124631D-05 -0.16590679D-04 -0.16045783D-04
 -0.50007696D-05 -0.27736144D-05 -0.26825191D-05 -0.83602404D-06 -0.28431298D-05
 -0.27497513D-05 -0.85697738D-06 -0.14028420D-02 -0.13567677D-02 -0.42284522D-03
 -0.97572695D-05 -0.94368062D-05 -0.29410403D-05
MO    4     MO 0.0        OCC NO =    2.0000003  ORB. ENERGY =    0.000000
 -0.30138886D-01 -0.29149018D-01 -0.90844758D-02  0.18155292D-05 -0.24284170D-05
 -0.18327625D-05  0.66730818D-04  0.41962129D-04  0.66475063D-05  0.84509754D-04
  0.53142001D-04  0.84185858D-05 -0.10175820D-03 -0.63988286D-04 -0.10136819D-04
  0.39855259D+01  0.38546271D+01  0.12013189D+01 -0.54867539D-03  0.73389766D-03
  0.55388351D-03 -0.13333133D-01 -0.83842318D-02 -0.13282032D-02 -0.88976215D-02
 -0.55950632D-02 -0.88635201D-03  0.13065091D-01  0.82156799D-02  0.13015017D-02
 -0.12158145D-01 -0.11758828D-01 -0.36647132D-02  0.74602624D-05 -0.99787036D-05
 -0.75310765D-05  0.26261416D-05  0.16513883D-05  0.26160766D-06 -0.16998121D-04
 -0.10688875D-04 -0.16932974D-05  0.41805896D-04  0.26288669D-04  0.41645669D-05
 -0.37022131D-01 -0.35806194D-01 -0.11159227D-01  0.44395851D-04 -0.59383038D-04
 -0.44817264D-04 -0.10898080D-03 -0.68530054D-04 -0.10856312D-04 -0.55021149D-04
 -0.34598775D-04 -0.54810272D-05 -0.14649219D-03 -0.92118223D-04 -0.14593074D-04
 -0.33407424D-02 -0.32310206D-02 -0.10069680D-02  0.83062814D-04 -0.11110322D-03
 -0.83851260D-04 -0.23224218D-03 -0.14604012D-03 -0.23135208D-04  0.53893999D-04
  0.33889993D-04  0.53687443D-05  0.52165587D-04  0.32803121D-04  0.51965655D-05
 -0.20505141D-02 -0.19831680D-02 -0.61806683D-03 -0.65831907D-05  0.88055494D-05
  0.66456795D-05 -0.57990121D-04 -0.36465744D-04 -0.57767865D-05 -0.99114800D-05
 -0.62326046D-05 -0.98734928D-06 -0.89434064D-05 -0.56238539D-05 -0.89091295D-06
  0.21494685D+00  0.20788724D+00  0.64789371D-01 -0.31450057D-03  0.42066992D-03
  0.31748586D-03 -0.21433659D-03 -0.13478060D-03 -0.21351512D-04  0.21556003D-03
  0.13554993D-03  0.21473387D-04 -0.89418304D-04 -0.56228629D-04 -0.89075595D-05
  0.48142325D+00  0.46561161D+00  0.14511080D+00 -0.10260402D-02  0.13724117D-02
  0.10357796D-02  0.27383016D-03  0.17219176D-03  0.27278067D-04  0.18845082D-03
  0.11850293D-03  0.18772856D-04 -0.27022437D-03 -0.16992433D-03 -0.26918869D-04
  0.24026168D+00  0.23237063D+00  0.72419777D-01 -0.41558965D-03  0.55588473D-03
  0.41953450D-03 -0.17854585D-04 -0.11227442D-04 -0.17786155D-05  0.97304154D-04
  0.61187463D-04  0.96931222D-05 -0.63356943D-04 -0.39840546D-04 -0.63114119D-05
 -0.51412768D-02 -0.49724191D-02 -0.15496858D-02  0.99337022D-05 -0.13287129D-04
 -0.10027995D-04 -0.21587955D-04 -0.13575085D-04 -0.21505216D-05 -0.67162787D-05
 -0.42233763D-05 -0.66905376D-06 -0.27549392D-04 -0.17323797D-04 -0.27443805D-05
  0.57435516D+00  0.55549131D+00  0.17312238D+00 -0.11408042D-02  0.15259177D-02
  0.11516329D-02  0.39486666D-03  0.24830275D-03  0.39335327D-04 -0.15698468D-03
 -0.98716180D-04 -0.15638301D-04 -0.54123772D-04 -0.34034480D-04 -0.53916335D-05
  0.34383821D+00  0.33254535D+00  0.10363986D+00 -0.76262462D-03  0.10200720D-02
  0.76986358D-03  0.17167873D-03  0.10795619D-03  0.17102074D-04 -0.97584691D-04
 -0.61363872D-04 -0.97210684D-05 -0.75036198D-06 -0.47184775D-06 -0.74748611D-07
  0.29111003D+00  0.28154895D+00  0.87746509D-01  0.17508876D-03 -0.23419536D-03
 -0.17675073D-03 -0.29193952D-02 -0.18357940D-02 -0.29082061D-03 -0.38545689D-04
 -0.24238564D-04 -0.38397957D-05  0.13656598D-02  0.85876356D-03  0.13604258D-03
 -0.20008856D-04 -0.19351694D-04 -0.60310778D-05 -0.20407939D-04 -0.19737670D-04
 -0.61513695D-05 -0.99172070D-05 -0.95914909D-05 -0.29892488D-05 -0.57826113D-03
 -0.55926899D-03 -0.17429972D-03 -0.23710773D-03 -0.22932028D-03 -0.71469114D-04
  0.19697688D-04  0.19050746D-04  0.59372854D-05  0.18793078D-04  0.18175847D-04
  0.56646176D-05 -0.57544408D-03 -0.55654446D-03 -0.17345060D-03 -0.51718458D-03
 -0.50019841D-03 -0.15589000D-03  0.95067214D-05  0.91944871D-05  0.28655200D-05
 -0.13929037D-02 -0.13471558D-02 -0.41984963D-03
MO    5     MO 0.0        OCC NO =    2.0000003  ORB. ENERGY =    0.000000
  0.25210704D-02  0.24382696D-02  0.75990212D-03 -0.10201180D-04  0.13644902D-04
  0.10298011D-04  0.12748582D-04  0.80166507D-05  0.12699722D-05  0.19270532D-04
  0.12117828D-04  0.19196675D-05  0.62716674D-04  0.39437928D-04  0.62476303D-05
 -0.12548593D+01 -0.12136453D+01 -0.37824023D+00  0.60734630D-03 -0.81237475D-03
 -0.61311134D-03  0.39666122D-02  0.24943122D-02  0.39514095D-03  0.24139408D-02
  0.15179507D-02  0.24046890D-03 -0.36584019D-02 -0.23005013D-02 -0.36443806D-03
 -0.10309860D-01 -0.99712481D-02 -0.31076025D-02  0.71423360D-05 -0.95534514D-05
 -0.72101323D-05  0.40291986D-04  0.25336682D-04  0.40137561D-05 -0.28378394D-04
 -0.17845096D-04 -0.28269630D-05  0.27108973D-04  0.17046849D-04  0.27005074D-05
 -0.33924800D-01 -0.32810590D-01 -0.10225628D-01  0.53342259D-04 -0.71349581D-04
 -0.53848593D-04 -0.13952745D-03 -0.87738603D-04 -0.13899269D-04 -0.36361315D-04
 -0.22864970D-04 -0.36221955D-05 -0.12610877D-03 -0.79300577D-04 -0.12562544D-04
 -0.67352466D-02 -0.65140373D-02 -0.20301409D-02  0.44138432D-03 -0.59038718D-03
 -0.44557401D-03 -0.15195846D-02 -0.95555559D-03 -0.15137606D-03  0.47090888D-03
  0.29612014D-03  0.46910406D-04  0.25697202D-03  0.16159090D-03  0.25598714D-04
 -0.35907670D-02 -0.34728335D-02 -0.10823305D-02 -0.13224597D-04  0.17688966D-04
  0.13350127D-04 -0.11564055D-03 -0.72717879D-04 -0.11519734D-04  0.26039110D-04
  0.16374091D-04  0.25939311D-05 -0.45256244D-05 -0.28458341D-05 -0.45082793D-06
  0.11122541D+01  0.10757237D+01  0.33525610D+00 -0.20509677D-02  0.27433350D-02
  0.20704359D-02 -0.37211703D-03 -0.23399717D-03 -0.37069084D-04 -0.37142701D-03
 -0.23356327D-03 -0.37000346D-04  0.37219711D-03  0.23404753D-03  0.37077061D-04
  0.99649194D+00  0.96376362D+00  0.30036302D+00 -0.19097414D-02  0.25544334D-02
  0.19278690D-02  0.48068672D-03  0.30226871D-03  0.47884442D-04 -0.22043009D-03
 -0.13861236D-03 -0.21958526D-04 -0.48746541D-04 -0.30653133D-04 -0.48559712D-05
  0.14778570D+01  0.14293190D+01  0.44545630D+00 -0.29726200D-02  0.39761193D-02
  0.30008366D-02  0.38338671D-03  0.24108385D-03  0.38191732D-04 -0.54511180D-03
 -0.34278093D-03 -0.54302258D-04  0.25875896D-03  0.16271458D-03  0.25776723D-04
 -0.43296547D-02 -0.41874535D-02 -0.13050464D-02  0.19910536D-04 -0.26631951D-04
 -0.20099531D-04 -0.10410164D-03 -0.65461906D-04 -0.10370266D-04 -0.10235442D-04
 -0.64363207D-05 -0.10196213D-05 -0.88117848D-05 -0.55410867D-05 -0.87780124D-06
  0.65179659D+00  0.63038928D+00  0.19646481D+00 -0.12283589D-02  0.16430292D-02
  0.12400187D-02  0.39173395D-03  0.24633282D-03  0.39023257D-04  0.13428701D-03
  0.84443274D-04  0.13377233D-04 -0.28702182D-03 -0.18048702D-03 -0.28592177D-04
  0.12526402D+01  0.12114991D+01  0.37757136D+00 -0.25823424D-02  0.34540916D-02
  0.26068545D-02  0.20667178D-03  0.12996076D-03  0.20587968D-04 -0.92592601D-03
 -0.58224712D-03 -0.92237726D-04  0.62731614D-03  0.39447323D-03  0.62491187D-04
  0.37933288D+00  0.36687424D+00  0.11433868D+00 -0.44327352D-03  0.59291414D-03
  0.44748115D-03  0.17199052D-02  0.10815226D-02  0.17133135D-03 -0.72728571D-03
 -0.45733677D-03 -0.72449828D-04 -0.21555443D-03 -0.13554641D-03 -0.21472829D-04
 -0.62221298D-04 -0.60177731D-04 -0.18754770D-04 -0.49273344D-04 -0.47655033D-04
 -0.14851992D-04 -0.51665261D-04 -0.49968391D-04 -0.15572965D-04 -0.96037074D-03
 -0.92882877D-03 -0.28947536D-03 -0.14729149D-02 -0.14245391D-02 -0.44396663D-03
  0.18814321D-04  0.18196392D-04  0.56710205D-05  0.16452188D-04  0.15911840D-04
  0.49590254D-05 -0.59098020D-03 -0.57157032D-03 -0.17813350D-03 -0.11724211D-02
 -0.11339147D-02 -0.35339168D-03 -0.19369047D-05 -0.18732899D-05 -0.58382264D-06
  0.27562435D-03  0.26657188D-03  0.83078810D-04
MO    6     MO 0.0        OCC NO =    2.0000003  ORB. ENERGY =    0.000000
  0.53751720D-03  0.51986323D-03  0.16201866D-03  0.75079556D-05 -0.10042497D-04
 -0.75792224D-05 -0.50635757D-05 -0.31841123D-05 -0.50441688D-06 -0.17721550D-04
 -0.11143786D-04 -0.17653630D-05 -0.47311794D-04 -0.29750926D-04 -0.47130465D-05
  0.59007174D+00  0.57069170D+00  0.17785968D+00 -0.25377609D-03  0.33944603D-03
  0.25618498D-03 -0.19131518D-02 -0.12030412D-02 -0.19058194D-03 -0.94745439D-03
 -0.59578474D-03 -0.94382313D-04  0.16054375D-02  0.10095422D-02  0.15992844D-03
  0.13430485D-01  0.12989380D-01  0.40482224D-02 -0.11580368D-04  0.15489677D-04
  0.11690290D-04 -0.30358347D-04 -0.19090143D-04 -0.30241994D-05  0.30505343D-04
  0.19182578D-04  0.30388427D-05 -0.30470367D-04 -0.19160584D-04 -0.30353585D-05
  0.60428347D-02  0.58443666D-02  0.18214338D-02 -0.88398765D-05  0.11824049D-04
  0.89237862D-05  0.21352996D-04  0.13427337D-04  0.21271158D-05 -0.41121535D-05
 -0.25858324D-05 -0.40963930D-06  0.25197668D-04  0.15844970D-04  0.25101094D-05
 -0.70960965D-02 -0.68630356D-02 -0.21389084D-02 -0.11582082D-03  0.15491971D-03
  0.11692022D-03  0.54104437D-03  0.34022322D-03  0.53897074D-04 -0.88333761D-04
 -0.55546639D-04 -0.87995209D-05 -0.14074238D-03 -0.88502587D-04 -0.14020297D-04
  0.83480865D-02  0.80739058D-02  0.25162838D-02 -0.17402749D-04  0.23277582D-04
  0.17567938D-04  0.28249357D-04  0.17763954D-04  0.28141087D-05  0.33019765D-04
  0.20763714D-04  0.32893212D-05 -0.65040113D-05 -0.40898968D-05 -0.64790837D-06
 -0.34461355D+00 -0.33329522D+00 -0.10387356D+00  0.73873525D-03 -0.98811808D-03
 -0.74574746D-03 -0.37935637D-03 -0.23854946D-03 -0.37790243D-04 -0.19133552D-02
 -0.12031691D-02 -0.19060220D-03  0.16981095D-02  0.10678168D-02  0.16916013D-03
 -0.14868438D+01 -0.14380106D+01 -0.44816508D+00  0.32375758D-02 -0.43305192D-02
 -0.32683074D-02  0.10844482D-03  0.68193012D-04  0.10802919D-04 -0.13232454D-02
 -0.83209220D-03 -0.13181739D-03  0.98088239D-03  0.61680517D-03  0.97712301D-04
  0.10064957D+01  0.97343880D+00  0.30337836D+00 -0.23048427D-02  0.30829133D-02
  0.23267207D-02 -0.90627512D-03 -0.56989011D-03 -0.90280169D-04 -0.10830180D-02
 -0.68103081D-03 -0.10788672D-03  0.12736570D-02  0.80090971D-03  0.12687755D-03
  0.95510829D-02  0.92373915D-02  0.28788915D-02 -0.26600517D-04  0.35580341D-04
  0.26853014D-04  0.71422723D-04  0.44912525D-04  0.71148985D-05 -0.73805396D-05
 -0.46410813D-05 -0.73522526D-06  0.13434820D-04  0.84481756D-05  0.13383329D-05
 -0.14242608D+01 -0.13774830D+01 -0.42930129D+00  0.32229371D-02 -0.43109387D-02
 -0.32535297D-02 -0.82381738D-03 -0.51803847D-03 -0.82065998D-04 -0.12458202D-02
 -0.78340519D-03 -0.12410454D-03  0.13490150D-02  0.84829686D-03  0.13438448D-03
  0.12920946D+01  0.12496576D+01  0.38946370D+00 -0.30584642D-02  0.40909429D-02
  0.30874957D-02 -0.57761707D-04 -0.36322112D-04 -0.57540327D-05 -0.14893245D-02
 -0.93652719D-03 -0.14836164D-03  0.11963268D-02  0.75228239D-03  0.11917417D-03
 -0.45081906D-01 -0.43601256D-01 -0.13588607D-01  0.15682388D-03 -0.20976461D-03
 -0.15831248D-03 -0.82248134D-03 -0.51719834D-03 -0.81932906D-04 -0.20423845D-02
 -0.12843062D-02 -0.20345568D-03  0.19711644D-02  0.12395211D-02  0.19636096D-03
  0.73269526D-05  0.70863095D-05  0.22084932D-05  0.21647622D-04  0.20936638D-04
  0.65250356D-05 -0.22209593D-04 -0.21480151D-04 -0.66944249D-05  0.14842286D-02
  0.14354813D-02  0.44737683D-03 -0.10228873D-02 -0.98929204D-03 -0.30831912D-03
 -0.39926345D-05 -0.38615022D-05 -0.12034616D-05 -0.44162470D-05 -0.42712019D-05
 -0.13311471D-05  0.14013470D-02  0.13553218D-02  0.42239461D-03 -0.13441039D-02