 opt valine b3lyp
GAUSSIAN             32 MOL ORBITALS    153 PRIMITIVES       19 NUCLEI
  O    1    (CENTRE  1)  -1.89006817 -3.43892495 -0.27923290  CHARGE =  8.0
  O    2    (CENTRE  2)  -3.84703046  0.14225389  1.48698350  CHARGE =  8.0
  N    3    (CENTRE  3)  -1.10249557  3.58790668 -1.37009671  CHARGE =  7.0
  C    4    (CENTRE  4)   2.54065425  0.61199526 -0.34979945  CHARGE =  6.0
  C    5    (CENTRE  5)  -0.22389320  0.84020277 -1.46360060  CHARGE =  6.0
  C    6    (CENTRE  6)   3.64731768 -2.08174475 -0.81405032  CHARGE =  6.0
  C    7    (CENTRE  7)   2.62878983  1.35359785  2.50058284  CHARGE =  6.0
  C    8    (CENTRE  8)  -2.18699701 -0.79611202  0.07635507  CHARGE =  6.0
  H    9    (CENTRE  9)   3.69030339  2.00033081 -1.40915612  CHARGE =  1.0
  H   10    (CENTRE 10)  -0.18149590  0.17748545 -3.44943877  CHARGE =  1.0
  H   11    (CENTRE 11)   3.83139113 -2.45008944 -2.85283541  CHARGE =  1.0
  H   12    (CENTRE 12)   2.39031907 -3.52858111 -0.00351782  CHARGE =  1.0
  H   13    (CENTRE 13)   5.52760862 -2.25105050  0.05770813  CHARGE =  1.0
  H   14    (CENTRE 14)   1.53194275  0.01679225  3.65742688  CHARGE =  1.0
  H   15    (CENTRE 15)   4.59378241  1.34413961  3.18099372  CHARGE =  1.0
  H   16    (CENTRE 16)   1.84886460  3.26258058  2.76728464  CHARGE =  1.0
  H   17    (CENTRE 17)  -2.29999623  3.57739744  0.25724778  CHARGE =  1.0
  H   18    (CENTRE 18)  -2.46790991  3.70774168 -2.84023232  CHARGE =  1.0
  H   19    (CENTRE 19)  -3.28578115 -4.16635965  0.86626627  CHARGE =  1.0
CENTRE ASSIGNMENTS    1  1  1  1  1  1  1  1  1  1  1  1  1  1  1  2  2  2  2  2
CENTRE ASSIGNMENTS    2  2  2  2  2  2  2  2  2  2  3  3  3  3  3  3  3  3  3  3
CENTRE ASSIGNMENTS    3  3  3  3  3  4  4  4  4  4  4  4  4  4  4  4  4  4  4  4
CENTRE ASSIGNMENTS    5  5  5  5  5  5  5  5  5  5  5  5  5  5  5  6  6  6  6  6
CENTRE ASSIGNMENTS    6  6  6  6  6  6  6  6  6  6  7  7  7  7  7  7  7  7  7  7
CENTRE ASSIGNMENTS    7  7  7  7  7  8  8  8  8  8  8  8  8  8  8  8  8  8  8  8
CENTRE ASSIGNMENTS    9  9  9 10 10 10 11 11 11 12 12 12 13 13 13 14 14 14 15 15
CENTRE ASSIGNMENTS   15 16 16 16 17 17 17 18 18 18 19 19 19
TYPE ASSIGNMENTS      1  1  1  1  1  1  2  2  2  3  3  3  4  4  4  1  1  1  1  1
TYPE ASSIGNMENTS      1  2  2  2  3  3  3  4  4  4  1  1  1  1  1  1  2  2  2  3
TYPE ASSIGNMENTS      3  3  4  4  4  1  1  1  1  1  1  2  2  2  3  3  3  4  4  4
TYPE ASSIGNMENTS      1  1  1  1  1  1  2  2  2  3  3  3  4  4  4  1  1  1  1  1
TYPE ASSIGNMENTS      1  2  2  2  3  3  3  4  4  4  1  1  1  1  1  1  2  2  2  3
TYPE ASSIGNMENTS      3  3  4  4  4  1  1  1  1  1  1  2  2  2  3  3  3  4  4  4
TYPE ASSIGNMENTS      1  1  1  1  1  1  1  1  1  1  1  1  1  1  1  1  1  1  1  1
TYPE ASSIGNMENTS      1  1  1  1  1  1  1  1  1  1  1  1  1
EXPONENTS  0.1307093D+03 0.2380887D+02 0.6443608D+01 0.5033151D+01 0.1169596D+01
EXPONENTS  0.3803890D+00 0.5033151D+01 0.1169596D+01 0.3803890D+00 0.5033151D+01
EXPONENTS  0.1169596D+01 0.3803890D+00 0.5033151D+01 0.1169596D+01 0.3803890D+00
EXPONENTS  0.1307093D+03 0.2380887D+02 0.6443608D+01 0.5033151D+01 0.1169596D+01
EXPONENTS  0.3803890D+00 0.5033151D+01 0.1169596D+01 0.3803890D+00 0.5033151D+01
EXPONENTS  0.1169596D+01 0.3803890D+00 0.5033151D+01 0.1169596D+01 0.3803890D+00
EXPONENTS  0.9910617D+02 0.1805231D+02 0.4885660D+01 0.3780456D+01 0.8784966D+00
EXPONENTS  0.2857144D+00 0.3780456D+01 0.8784966D+00 0.2857144D+00 0.3780456D+01
EXPONENTS  0.8784966D+00 0.2857144D+00 0.3780456D+01 0.8784966D+00 0.2857144D+00
EXPONENTS  0.7161684D+02 0.1304510D+02 0.3530512D+01 0.2941249D+01 0.6834831D+00
EXPONENTS  0.2222899D+00 0.2941249D+01 0.6834831D+00 0.2222899D+00 0.2941249D+01
EXPONENTS  0.6834831D+00 0.2222899D+00 0.2941249D+01 0.6834831D+00 0.2222899D+00
EXPONENTS  0.7161684D+02 0.1304510D+02 0.3530512D+01 0.2941249D+01 0.6834831D+00
EXPONENTS  0.2222899D+00 0.2941249D+01 0.6834831D+00 0.2222899D+00 0.2941249D+01
EXPONENTS  0.6834831D+00 0.2222899D+00 0.2941249D+01 0.6834831D+00 0.2222899D+00
EXPONENTS  0.7161684D+02 0.1304510D+02 0.3530512D+01 0.2941249D+01 0.6834831D+00
EXPONENTS  0.2222899D+00 0.2941249D+01 0.6834831D+00 0.2222899D+00 0.2941249D+01
EXPONENTS  0.6834831D+00 0.2222899D+00 0.2941249D+01 0.6834831D+00 0.2222899D+00
EXPONENTS  0.7161684D+02 0.1304510D+02 0.3530512D+01 0.2941249D+01 0.6834831D+00
EXPONENTS  0.2222899D+00 0.2941249D+01 0.6834831D+00 0.2222899D+00 0.2941249D+01
EXPONENTS  0.6834831D+00 0.2222899D+00 0.2941249D+01 0.6834831D+00 0.2222899D+00
EXPONENTS  0.7161684D+02 0.1304510D+02 0.3530512D+01 0.2941249D+01 0.6834831D+00
EXPONENTS  0.2222899D+00 0.2941249D+01 0.6834831D+00 0.2222899D+00 0.2941249D+01
EXPONENTS  0.6834831D+00 0.2222899D+00 0.2941249D+01 0.6834831D+00 0.2222899D+00
EXPONENTS  0.3425251D+01 0.6239137D+00 0.1688554D+00 0.3425251D+01 0.6239137D+00
EXPONENTS  0.1688554D+00 0.3425251D+01 0.6239137D+00 0.1688554D+00 0.3425251D+01
EXPONENTS  0.6239137D+00 0.1688554D+00 0.3425251D+01 0.6239137D+00 0.1688554D+00
EXPONENTS  0.3425251D+01 0.6239137D+00 0.1688554D+00 0.3425251D+01 0.6239137D+00
EXPONENTS  0.1688554D+00 0.3425251D+01 0.6239137D+00 0.1688554D+00 0.3425251D+01
EXPONENTS  0.6239137D+00 0.1688554D+00 0.3425251D+01 0.6239137D+00 0.1688554D+00
EXPONENTS  0.3425251D+01 0.6239137D+00 0.1688554D+00
MO    1     MO 0.0        OCC NO =    2.0000000  ORB. ENERGY =  -18.947127
  0.42244277D+01  0.40856825D+01  0.12733288D+01 -0.68608178D-02  0.91768981D-02
  0.69259419D-02 -0.44502055D-02 -0.27984086D-02 -0.44331494D-03  0.37456374D-02
  0.23553573D-02  0.37312818D-03  0.39533712D-02  0.24859859D-02  0.39382194D-03
  0.37610069D-02  0.36374821D-02  0.11336443D-02 -0.50993888D-04  0.68208445D-04
  0.51477931D-04 -0.26819272D-03 -0.16864678D-03 -0.26716483D-04 -0.10763656D-02
 -0.67684759D-03 -0.10722403D-03  0.17552613D-03  0.11037554D-03  0.17485340D-04
  0.48721200D-05  0.47121024D-05  0.14685565D-05 -0.37197856D-05  0.49755138D-05
  0.37550945D-05  0.38349694D-04  0.24115317D-04  0.38202713D-05  0.52348335D-04
  0.32918038D-04  0.52147703D-05 -0.10770502D-04 -0.67727806D-05 -0.10729222D-05
 -0.18793769D-04 -0.18176515D-04 -0.56648257D-05 -0.29003519D-05  0.38794550D-05
  0.29278826D-05 -0.16661173D-04 -0.10476993D-04 -0.16597317D-05 -0.13150909D-04
 -0.82696442D-05 -0.13100506D-05  0.26415131D-04  0.16610543D-04  0.26313891D-05
 -0.68796176D-04 -0.66536667D-04 -0.20736573D-04 -0.46721496D-04  0.62493776D-04
  0.47164985D-04 -0.22370044D-04 -0.14066884D-04 -0.22284308D-05 -0.30582344D-03
 -0.19230999D-03 -0.30465133D-04 -0.44539062D-04 -0.28007358D-04 -0.44368360D-05
 -0.79328159D-04 -0.76722742D-04 -0.23911127D-04 -0.49015982D-04  0.65562836D-04
  0.49481250D-04 -0.67753296D-04 -0.42605091D-04 -0.67493622D-05 -0.15988177D-03
 -0.10053794D-03 -0.15926900D-04  0.97583791D-04  0.61363306D-04  0.97209787D-05
  0.32064389D-05  0.31011281D-05  0.96648618D-06  0.42473038D-05 -0.56811119D-05
 -0.42876199D-05 -0.27942278D-05 -0.17570854D-05 -0.27835185D-06 -0.17248540D-05
 -0.10846345D-05 -0.17182433D-06 -0.90289097D-05 -0.56776207D-05 -0.89943051D-06
  0.15930306D-02  0.15407098D-02  0.48017196D-03  0.76975831D-03 -0.10296139D-02
 -0.77706499D-03 -0.59785189D-03 -0.37594531D-03 -0.59556054D-04  0.43236135D-02
  0.27188042D-02  0.43070426D-03  0.68099560D-03  0.42822831D-03  0.67838559D-04
  0.49230232D-05  0.47613337D-05  0.14838997D-05 -0.31111288D-04 -0.30089483D-04
 -0.93775776D-05 -0.46618401D-05 -0.45087288D-05 -0.14051738D-05 -0.19004396D-03
 -0.18380225D-03 -0.57283132D-04 -0.86428342D-05 -0.83589729D-05 -0.26051267D-05
  0.16210721D-04  0.15678304D-04  0.48862425D-05  0.14809480D-05  0.14323085D-05
  0.44638799D-06  0.36132645D-06  0.34945921D-06  0.10891117D-06 -0.33913856D-04
 -0.32800005D-04 -0.10222329D-04  0.71823143D-06  0.69464217D-06  0.21648962D-06
 -0.17511256D-02 -0.16936124D-02 -0.52782502D-03
MO    2     MO 0.0        OCC NO =    2.0000000  ORB. ENERGY =  -18.880798
 -0.41015692D-02 -0.39668592D-02 -0.12362967D-02 -0.60758789D-04  0.81269789D-04
  0.61335522D-04 -0.72398776D-03 -0.45526293D-03 -0.72121297D-04  0.83228970D-04
  0.52336610D-04  0.82909983D-05  0.60449627D-03  0.38012348D-03  0.60217945D-04
  0.42246679D+01  0.40859149D+01  0.12734012D+01 -0.68902426D-02  0.92162561D-02
  0.69556459D-02  0.67834394D-02  0.42656087D-02  0.67574409D-03 -0.37629701D-02
 -0.23662566D-02 -0.37485480D-03 -0.57625913D-02 -0.36236720D-02 -0.57405053D-03
 -0.10525417D-03 -0.10179725D-03 -0.31725757D-04 -0.58786628D-04  0.78631864D-04
  0.59344640D-04 -0.27612948D-03 -0.17363763D-03 -0.27507117D-04  0.68660004D-04
  0.43175253D-04  0.68396854D-05  0.31249654D-03  0.19650621D-03  0.31129885D-04
 -0.91901591D-05 -0.88883218D-05 -0.27701017D-05 -0.27241413D-05  0.36437591D-05
  0.27499993D-05 -0.15215673D-04 -0.95680232D-05 -0.15157356D-05 -0.85534478D-05
 -0.53786375D-05 -0.85206655D-06 -0.18994930D-04 -0.11944521D-04 -0.18922129D-05
 -0.64956808D-04 -0.62823397D-04 -0.19579309D-04 -0.30918434D-04  0.41355904D-04
  0.31211918D-04 -0.26521780D-03 -0.16677607D-03 -0.26420131D-04  0.29219952D-03
  0.18374290D-03  0.29107962D-04  0.22516241D-03  0.14158816D-03  0.22429944D-04
  0.72610135D-05  0.70225362D-05  0.21886178D-05  0.15134365D-05 -0.20243436D-05
 -0.15278023D-05  0.22386881D-04  0.14077472D-04  0.22301080D-05 -0.61348163D-05
 -0.38577371D-05 -0.61113037D-06  0.11586612D-05  0.72859726D-06  0.11542205D-06
 -0.15797030D-04 -0.15278200D-04 -0.47615475D-05 -0.27069116D-05  0.36207130D-05
  0.27326061D-05 -0.40322078D-04 -0.25355605D-04 -0.40167538D-05 -0.11306944D-04
 -0.71101098D-05 -0.11263608D-05 -0.20656762D-04 -0.12989526D-04 -0.20577592D-05
  0.18442031D-02  0.17836329D-02  0.55588047D-03  0.12546162D-02 -0.16781505D-02
 -0.12665252D-02  0.44039302D-02  0.27693095D-02  0.43870515D-03 -0.24612926D-02
 -0.15477268D-02 -0.24518593D-03 -0.37419872D-02 -0.23530620D-02 -0.37276455D-03
  0.91811121D-06  0.88795719D-06  0.27673747D-06  0.85805957D-05  0.82987786D-05
  0.25863668D-05  0.48533881D-06  0.46939857D-06  0.14629103D-06 -0.50719667D-05
 -0.49053854D-05 -0.15287944D-05 -0.18710657D-05 -0.18096133D-05 -0.56397743D-06
  0.80842397D-05  0.78187247D-05  0.24367550D-05  0.40902439D-05  0.39559059D-05
  0.12328831D-05  0.32605149D-05  0.31534281D-05  0.98278579D-06 -0.23537204D-03
 -0.22764159D-03 -0.70945941D-04  0.26828871D-05  0.25947716D-05  0.80867696D-06
 -0.36660354D-04 -0.35456298D-04 -0.11050179D-04
MO    3     MO 0.0        OCC NO =    2.0000000  ORB. ENERGY =  -14.101256
  0.23644838D-04  0.22868258D-04  0.71270370D-05  0.35383910D-05 -0.47328838D-05
 -0.35719780D-05 -0.72433722D-04 -0.45548268D-04 -0.72156110D-05 -0.25815883D-04
 -0.16233720D-04 -0.25716940D-05  0.54399475D-04  0.34207850D-04  0.54190981D-05
 -0.24072757D-03 -0.23282123D-03 -0.72560207D-04 -0.56832541D-04  0.76018115D-04
  0.57372005D-04  0.47768036D-04  0.30037823D-04  0.47584958D-05  0.51735532D-03
  0.32532691D-03  0.51537248D-04 -0.35350023D-05 -0.22229043D-05 -0.35214539D-06
  0.34290131D+01  0.33163922D+01  0.10335746D+01 -0.67774043D-02  0.90653258D-02
  0.68417366D-02 -0.51544921D-02 -0.32412830D-02 -0.51347368D-03 -0.43299695D-02
 -0.27228010D-02 -0.43133743D-03  0.14359490D-03  0.90296325D-04  0.14304455D-04
 -0.24403108D-04 -0.23601624D-04 -0.73555952D-05 -0.49159526D-04  0.65754837D-04
  0.49626156D-04 -0.82965858D-04 -0.52171158D-04 -0.82647879D-05  0.11166632D-03
  0.70218781D-04  0.11123835D-04 -0.64277898D-04 -0.40419667D-04 -0.64031544D-05
  0.15911760D-02  0.15389161D-02  0.47961294D-03  0.92167852D-03 -0.12328195D-02
 -0.93042725D-03  0.14181903D-02  0.89179612D-03  0.14127549D-03 -0.41605020D-02
 -0.26162353D-02 -0.41445563D-03 -0.96856120D-04 -0.60905728D-04 -0.96484905D-05
  0.27210587D-04  0.26316895D-04  0.82018267D-05  0.97687252D-05 -0.13066459D-04
 -0.98614516D-05  0.94270086D-04  0.59279560D-04  0.93908782D-05 -0.33442765D-04
 -0.21029708D-04 -0.33314591D-05  0.26327875D-04  0.16555674D-04  0.26226970D-05
 -0.30164320D-04 -0.29173618D-04 -0.90921423D-05 -0.14359231D-04  0.19206632D-04
  0.14495532D-04 -0.61049661D-04 -0.38389665D-04 -0.60815679D-05  0.21782213D-04
  0.13697240D-04  0.21698730D-05  0.20382497D-04  0.12817061D-04  0.20304378D-05
 -0.76188848D-04 -0.73686536D-04 -0.22964875D-04 -0.77464291D-04  0.10361475D-03
  0.78199595D-04  0.28125405D-04  0.17686009D-04  0.28017610D-05  0.34098735D-03
  0.21442200D-03  0.33968047D-04 -0.41803658D-04 -0.26287262D-04 -0.41643440D-05
 -0.49618839D-04 -0.47989181D-04 -0.14956132D-04  0.13447230D-03  0.13005575D-03
  0.40532697D-04 -0.36103522D-05 -0.34917755D-05 -0.10882339D-05 -0.48804034D-05
 -0.47201137D-05 -0.14710533D-05 -0.67979262D-05 -0.65746582D-05 -0.20490338D-05
  0.13075312D-05  0.12645873D-05  0.39411661D-06  0.31062388D-05  0.30042190D-05
  0.93628383D-06 -0.37893017D-04 -0.36648476D-04 -0.11421729D-04 -0.21503716D-02
 -0.20797458D-02 -0.64816594D-03 -0.21571658D-02 -0.20863169D-02 -0.65021385D-03
 -0.65022351D-06 -0.62886787D-06 -0.19599065D-06
MO    4     MO 0.0        OCC NO =    2.0000000  ORB. ENERGY =  -10.104904
  0.26073124D-02  0.25216791D-02  0.78589722D-03  0.12839186D-02 -0.17173448D-02
 -0.12961057D-02  0.28400171D-03  0.17858789D-03  0.28291323D-04 -0.64396997D-02
 -0.40494560D-02 -0.64150187D-03 -0.47276324D-03 -0.29728621D-03 -0.47095131D-04
  0.23599312D-02  0.22824227D-02  0.71133147D-03  0.18106258D-02 -0.24218583D-02
 -0.18278126D-02 -0.37930749D-02 -0.23851873D-02 -0.37785374D-03  0.23283122D-02
  0.14641052D-02  0.23193886D-03  0.32229993D-02  0.20267085D-02  0.32106467D-03
 -0.15624870D-03 -0.15111694D-03 -0.47096549D-04 -0.12599412D-03  0.16852731D-03
  0.12719008D-03 -0.68696134D-04 -0.43197972D-04 -0.68432846D-05 -0.85289295D-04
 -0.53632197D-04 -0.84962411D-05  0.19366970D-03  0.12178470D-03  0.19292743D-04
 -0.10900922D-02 -0.10542897D-02 -0.32857605D-03 -0.20757597D-04  0.27764963D-04
  0.20954632D-04  0.51835561D-04  0.32595592D-04  0.51636894D-05  0.15515861D-03
  0.97567897D-04  0.15456394D-04 -0.11524139D-03 -0.72466881D-04 -0.11479971D-04
 -0.23816019D-01 -0.23033817D-01 -0.71786345D-02  0.10965786D-02 -0.14667625D-02
 -0.11069876D-02  0.30456496D-02  0.19151862D-02  0.30339767D-03  0.23243947D-02
  0.14616417D-02  0.23154861D-03 -0.23769243D-02 -0.14946738D-02 -0.23678144D-03
  0.15777992D-03  0.15259787D-03  0.47558089D-04 -0.28402896D-04  0.37991168D-04
  0.28672501D-04  0.26378093D-05  0.16587253D-05  0.26276995D-06 -0.66539423D-04
 -0.41841774D-04 -0.66284401D-05  0.24512569D-04  0.15414161D-04  0.24418621D-05
 -0.85541186D-04 -0.82731711D-04 -0.25783861D-04 -0.35867279D-04  0.47975383D-04
  0.36207737D-04  0.12224940D-03  0.76873701D-04  0.12178086D-04 -0.47795048D-04
 -0.30054809D-04 -0.47611867D-05  0.17818004D-03  0.11204439D-03  0.17749714D-04
  0.26839388D+01  0.25957887D+01  0.80899397D+00 -0.60481236D-02  0.80898539D-02
  0.61055334D-02 -0.52502804D-03 -0.33015172D-03 -0.52301580D-04  0.40225940D-03
  0.25295151D-03  0.40071769D-04  0.50485654D-03  0.31746734D-03  0.50292160D-04
 -0.50218942D-04 -0.48569574D-04 -0.15137015D-04 -0.76792348D-05 -0.74270215D-05
 -0.23146782D-05 -0.27327011D-05 -0.26429495D-05 -0.82369192D-06 -0.10467991D-03
 -0.10124185D-03 -0.31552663D-04 -0.58994154D-05 -0.57056577D-05 -0.17782043D-05
 -0.19526647D-03 -0.18885323D-03 -0.58857302D-04 -0.24376021D-04 -0.23575426D-04
 -0.73474305D-05  0.34962605D-06  0.33814310D-06  0.10538443D-06 -0.27800275D-03
 -0.26887216D-03 -0.83795707D-04 -0.38182759D-04 -0.36928702D-04 -0.11509063D-04
 -0.47163590D-03 -0.45614571D-03 -0.14216069D-03
MO    5     MO 0.0        OCC NO =    2.0000000  ORB. ENERGY =  -10.050507
 -0.76188629D-04 -0.73686325D-04 -0.22964809D-04 -0.61470272D-04  0.82221455D-04
  0.62053758D-04  0.46850487D-04  0.29460844D-04  0.46670926D-05  0.21119360D-03
  0.13280421D-03  0.21038417D-04 -0.72327911D-04 -0.45481731D-04 -0.72050704D-05
 -0.10018680D-03 -0.96896309D-04 -0.30198347D-04 -0.40472563D-04  0.54135323D-04
  0.40856736D-04  0.30454523D-03  0.19150621D-03  0.30337801D-04  0.45328319D-03
  0.28503664D-03  0.45154592D-04 -0.25152874D-03 -0.15816802D-03 -0.25056472D-04
  0.26954815D-02  0.26069524D-02  0.81247318D-03  0.11486191D-02 -0.15363708D-02
 -0.11595220D-02 -0.19908063D-02 -0.12518724D-02 -0.19831763D-03  0.54252875D-02
  0.34115664D-02  0.54044943D-03  0.25084594D-03  0.15773866D-03  0.24988454D-04
 -0.48017748D-01 -0.46440676D-01 -0.14473530D-01  0.12146243D-02 -0.16246582D-02
 -0.12261538D-02  0.43693946D-02  0.27475926D-02  0.43526483D-03 -0.39837074D-03
 -0.25050621D-03 -0.39684392D-04  0.17359050D-02  0.10915836D-02  0.17292519D-03
  0.26815502D+01  0.25934786D+01  0.80827401D+00 -0.68778170D-02  0.91996359D-02
  0.69431024D-02 -0.76038098D-04 -0.47814797D-04 -0.75746671D-05 -0.40723826D-03
 -0.25608235D-03 -0.40567746D-04 -0.41650484D-03 -0.26190942D-03 -0.41490853D-04
 -0.97629476D-03 -0.94422979D-03 -0.29427518D-03 -0.42433222D-04  0.56757862D-04
  0.42836005D-04  0.35054904D-04  0.22043465D-04  0.34920551D-05  0.12781474D-03
  0.80373337D-04  0.12732487D-04  0.80772933D-04  0.50792188D-04  0.80463359D-05
 -0.10011600D-02 -0.96827836D-03 -0.30177007D-03 -0.44755002D-04  0.59863431D-04
  0.45179824D-04  0.11537250D-03  0.72549326D-04  0.11493032D-04 -0.24330390D-04
 -0.15299602D-04 -0.24237140D-05 -0.94465217D-04 -0.59402264D-04 -0.94103166D-05
  0.27905006D-01  0.26988507D-01  0.84111388D-02  0.10700162D-02 -0.14312331D-02
 -0.10801729D-02 -0.31745350D-02 -0.19962328D-02 -0.31623681D-03 -0.26842408D-02
 -0.16879227D-02 -0.26739531D-03  0.24998460D-02  0.15719703D-02  0.24902650D-03
  0.57682791D-04  0.55788284D-04  0.17386771D-04 -0.25470836D-02 -0.24634284D-02
 -0.76774302D-03  0.24067890D-04  0.23277416D-04  0.72545537D-05 -0.23395374D-04
 -0.22626987D-04 -0.70518435D-05 -0.40023050D-04 -0.38708552D-04 -0.12063765D-04
  0.99876839D-06  0.96596530D-06  0.30104919D-06 -0.41798290D-04 -0.40425486D-04
 -0.12598858D-04 -0.31448833D-04 -0.30415943D-04 -0.94793207D-05 -0.14060033D-03
 -0.13598252D-03 -0.42379811D-04 -0.12626149D-03 -0.12211462D-03 -0.38057792D-04
 -0.42763082D-04 -0.41358591D-04 -0.12889666D-04
MO    6     MO 0.0        OCC NO =    2.0000000  ORB. ENERGY =  -10.022675
 -0.42431846D-04 -0.41038234D-04 -0.12789825D-04 -0.14251834D-04  0.19062980D-04
  0.14387115D-04  0.14514715D-04  0.91272420D-05  0.14459085D-05  0.85790759D-04
  0.53947531D-04  0.85461953D-05 -0.20156451D-04 -0.12674918D-04 -0.20079199D-05
 -0.19856189D-04 -0.19204041D-04 -0.59850608D-05 -0.29163687D-05  0.39008787D-05
  0.29440514D-05  0.61949093D-04  0.38955252D-04  0.61711664D-05 -0.42155555D-05
 -0.26508544D-05 -0.41993987D-06  0.21071923D-04  0.13250591D-04  0.20991162D-05
  0.50827272D-04  0.49157925D-04  0.15320378D-04 -0.27516825D-04  0.36805976D-04
  0.27778019D-04 -0.19820587D-04 -0.12463717D-04 -0.19744622D-05 -0.44732971D-04
 -0.28129293D-04 -0.44561526D-05 -0.87969575D-04 -0.55317629D-04 -0.87632419D-05
  0.26801104D+01  0.25920861D+01  0.80784002D+00 -0.70608232D-02  0.94444214D-02
  0.71278457D-02  0.46000001D-03  0.28926035D-03  0.45823699D-04  0.33255371D-03
  0.20911870D-03  0.33127915D-04 -0.18697498D-03 -0.11757489D-03 -0.18625837D-04
  0.52018836D-01  0.50310354D-01  0.15679540D-01  0.98001554D-03 -0.13108500D-02
 -0.98931802D-03 -0.44014835D-02 -0.27677709D-02 -0.43846142D-03  0.33556024D-03
  0.21100928D-03  0.33427416D-04 -0.18030503D-02 -0.11338064D-02 -0.17961398D-03
 -0.54712708D-01 -0.52915750D-01 -0.16491528D-01  0.12931856D-02 -0.17297402D-02
 -0.13054608D-02  0.18078371D-02  0.11368165D-02  0.18009083D-03 -0.44278517D-02
 -0.27843520D-02 -0.44108814D-03 -0.75144424D-03 -0.47252830D-03 -0.74856422D-04
 -0.56117075D-01 -0.54273992D-01 -0.16914833D-01  0.12985354D-02 -0.17368959D-02
 -0.13108613D-02  0.15164439D-03  0.95358060D-04  0.15106319D-04  0.12168145D-02
  0.76516563D-03  0.12121509D-03  0.46853192D-02  0.29462545D-02  0.46673620D-03
  0.18262941D-02  0.17663121D-02  0.55048235D-03  0.16057385D-04 -0.21478049D-04
 -0.16209804D-04 -0.79970987D-04 -0.50287902D-04 -0.79664486D-05  0.30092639D-04
  0.18923059D-04  0.29977305D-05 -0.95667016D-05 -0.60157987D-05 -0.95300359D-06
 -0.25500723D-02 -0.24663189D-02 -0.76864388D-03 -0.11286918D-04 -0.10916216D-04
 -0.34021076D-05  0.91633903D-04  0.88624322D-04  0.27620330D-04  0.68101344D-04
  0.65864655D-04  0.20527136D-04  0.84477603D-04  0.81703060D-04  0.25463275D-04
  0.72568364D-04  0.70184963D-04  0.21873587D-04  0.85464905D-04  0.82657936D-04
  0.25760868D-04  0.90780238D-04  0.87798694D-04  0.27363018D-04 -0.12762775D-05
 -0.12343600D-05 -0.38469609D-06 -0.40328082D-04 -0.39003565D-04 -0.12155708D-04
 -0.28498687D-06 -0.27562690D-06 -0.85900864D-07
MO    7     MO 0.0        OCC NO =    2.0000000  ORB. ENERGY =   -9.999175
  0.92218127D-05  0.89189357D-05  0.27796427D-05  0.65911370D-05 -0.88161783D-05
 -0.66537013D-05  0.27710956D-04  0.17425392D-04  0.27604749D-05 -0.62561435D-05
 -0.39340309D-05 -0.62321659D-06  0.18695155D-04  0.11756015D-04  0.18623503D-05
 -0.40321081D-04 -0.38996794D-04 -0.12153597D-04 -0.11602040D-04  0.15518665D-04
  0.11712168D-04  0.78312725D-04  0.49245143D-04  0.78012581D-05  0.99201932D-05
  0.62380837D-05  0.98821726D-06  0.25109934D-04  0.15789801D-04  0.25013697D-05
 -0.59777582D-04 -0.57814275D-04 -0.18018184D-04 -0.18368803D-04  0.24569758D-04
  0.18543163D-04  0.85346986D-04  0.53668475D-04  0.85019881D-05  0.77675738D-06
  0.48844589D-06  0.77378035D-07  0.40251908D-04  0.25311480D-04  0.40097637D-05
  0.56691466D-01  0.54829518D-01  0.17087966D-01  0.91796558D-03 -0.12278531D-02
 -0.92667907D-03 -0.32596267D-04 -0.20497407D-04 -0.32471337D-05 -0.14622619D-02
 -0.91950954D-03 -0.14566576D-03 -0.47205333D-02 -0.29683980D-02 -0.47024412D-03
  0.21147908D-02  0.20453336D-02  0.63744115D-03 -0.49090382D-05  0.65662352D-05
  0.49556357D-05 -0.23597143D-04 -0.14838517D-04 -0.23506703D-05 -0.47084999D-04
 -0.29608311D-04 -0.46904539D-05 -0.10523711D-03 -0.66175917D-04 -0.10483377D-04
 -0.15442367D+00 -0.14935185D+00 -0.46546450D-01  0.41744405D-03 -0.55836514D-03
 -0.42140650D-03  0.20899367D-04  0.13142083D-04  0.20819268D-05 -0.62632668D-05
 -0.39385103D-05 -0.62392620D-06 -0.91766009D-04 -0.57704929D-04 -0.91414302D-05
  0.26766456D+01  0.25887351D+01  0.80679565D+00 -0.72516949D-02  0.96997278D-02
  0.73205293D-02  0.62324617D-04  0.39191392D-04  0.62085749D-05  0.14708920D-03
  0.92493634D-04  0.14652546D-04  0.56074330D-03  0.35261044D-03  0.55859417D-04
  0.13845103D-03  0.13390381D-03  0.41731969D-04 -0.27164410D-05  0.36334593D-05
  0.27422260D-05 -0.10291701D-04 -0.64716975D-05 -0.10252256D-05 -0.72655908D-04
 -0.45687985D-04 -0.72377444D-05 -0.19125133D-04 -0.12026397D-04 -0.19051833D-05
 -0.18135776D-04 -0.17540133D-04 -0.54664935D-05 -0.42172811D-04 -0.40787706D-04
 -0.12711747D-04  0.10823194D-03  0.10467722D-03  0.32623317D-04  0.15967149D-03
  0.15442731D-03  0.48128249D-04  0.14402032D-03  0.13929018D-03  0.43410666D-04
 -0.25414401D-02 -0.24579702D-02 -0.76604195D-03 -0.25442492D-02 -0.24606870D-02
 -0.76688867D-03 -0.25384804D-02 -0.24551077D-02 -0.76514985D-03  0.14640039D-04
  0.14159208D-04  0.44128068D-05  0.55373751D-06  0.53555081D-06  0.16690780D-06
  0.36175914D-05  0.34987769D-05  0.10904159D-05
MO    8     MO 0.0        OCC NO =    2.0000000  ORB. ENERGY =   -9.998493
 -0.15076817D-03 -0.14581641D-03 -0.45444605D-04 -0.48555623D-04  0.64947069D-04
  0.49016522D-04  0.33338722D-03  0.20964283D-03  0.33210947D-04 -0.91193978D-04
 -0.57345220D-04 -0.90844463D-05  0.48879941D-04  0.30737019D-04  0.48692602D-05
  0.13167589D-04  0.12735119D-04  0.39689802D-05  0.55309793D-05 -0.73981317D-05
 -0.55834803D-05 -0.22723200D-04 -0.14288958D-04 -0.22636110D-05  0.99025317D-05
  0.62269777D-05  0.98645788D-06  0.15502271D-04  0.97482439D-05  0.15442856D-05
  0.60057156D-04  0.58084666D-04  0.18102453D-04  0.17560233D-04 -0.23488231D-04
 -0.17726918D-04 -0.84380345D-04 -0.53060625D-04 -0.84056945D-05  0.68335105D-04
  0.42970948D-04  0.68073201D-05 -0.33178401D-04 -0.20863469D-04 -0.33051240D-05
  0.62125314D-01  0.60084899D-01  0.18725838D-01  0.10337012D-02 -0.13826589D-02
 -0.10435133D-02 -0.18209935D-02 -0.11450896D-02 -0.18140143D-03  0.43401638D-02
  0.27292115D-02  0.43235295D-03  0.49673773D-03  0.31236202D-03  0.49483391D-04
  0.23199323D-02  0.22437375D-02  0.69927499D-03 -0.53478531D-05  0.71531855D-05
  0.53986158D-05 -0.40964702D-04 -0.25759704D-04 -0.40807699D-05  0.97295331D-04
  0.61181915D-04  0.96922433D-05 -0.30384201D-04 -0.19106401D-04 -0.30267749D-05
  0.26766104D+01  0.25887011D+01  0.80678506D+00 -0.72530316D-02  0.97015157D-02
  0.73218786D-02  0.21432680D-03  0.13477444D-03  0.21350536D-04 -0.51502849D-03
 -0.32386373D-03 -0.51305457D-04 -0.13329487D-03 -0.83819392D-04 -0.13278400D-04
  0.15342544D+00  0.14838640D+00  0.46245561D-01 -0.41698579D-03  0.55775218D-03
  0.42094389D-03 -0.34381389D-04 -0.21619940D-04 -0.34249617D-05  0.98960118D-04
  0.62228778D-04  0.98580839D-05  0.68483697D-04  0.43064386D-04  0.68221223D-05
 -0.16544232D-03 -0.16000861D-03 -0.49867695D-04 -0.12134275D-04  0.16230573D-04
  0.12249456D-04  0.18628771D-04  0.11714271D-04  0.18557374D-05  0.10140754D-04
  0.63767780D-05  0.10101888D-05  0.25362037D-04  0.15948329D-04  0.25264833D-05
 -0.16501018D-04 -0.15959067D-04 -0.49737440D-05 -0.14997845D-04 -0.14505263D-04
 -0.45206569D-05 -0.25459208D-02 -0.24623037D-02 -0.76739252D-03 -0.25434510D-02
 -0.24599151D-02 -0.76664808D-03 -0.25425343D-02 -0.24590285D-02 -0.76637178D-03
 -0.14867014D-03 -0.14378729D-03 -0.44812218D-04 -0.12920098D-03 -0.12495756D-03
 -0.38943814D-04 -0.18525131D-03 -0.17916701D-03 -0.55838530D-04 -0.97564330D-06
 -0.94359973D-06 -0.29407882D-06 -0.33073103D-05 -0.31986866D-05 -0.99689089D-06
  0.12432037D-04  0.12023725D-04  0.37472697D-05
MO    9     MO 0.0        OCC NO =    2.0000000  ORB. ENERGY =   -1.024973
 -0.70261737D+00 -0.67954093D+00 -0.21178323D+00 -0.13990878D+00  0.18713929D+00
  0.14123681D+00 -0.13319734D+00 -0.83758062D-01 -0.13268684D-01  0.13692051D+00
  0.86099290D-01  0.13639574D-01  0.11875512D+00  0.74676408D-01  0.11829998D-01
 -0.54233968D+00 -0.52452733D+00 -0.16347226D+00 -0.10394943D+00  0.13904076D+00
  0.10493614D+00  0.15095492D+00  0.94924505D-01  0.15037636D-01 -0.99424634D-01
 -0.62520878D-01 -0.99043575D-02 -0.12964459D+00 -0.81523999D-01 -0.12914771D-01
 -0.31080512D-01 -0.30059718D-01 -0.93683011D-02 -0.52331064D-02  0.69997025D-02
  0.52827799D-02 -0.58676948D-02 -0.36897639D-02 -0.58452060D-03 -0.11375581D-01
 -0.71532706D-02 -0.11331982D-02  0.25108805D-02  0.15789091D-02  0.25012572D-03
 -0.11488301D-01 -0.11110984D-01 -0.34628084D-02 -0.15402072D-02  0.20601516D-02
  0.15548272D-02 -0.37157334D-02 -0.23365529D-02 -0.37014924D-03 -0.82919472D-03
 -0.52141989D-03 -0.82601671D-04 -0.48634955D-03 -0.30582965D-03 -0.48448555D-04
 -0.55220683D-01 -0.53407040D-01 -0.16644642D-01 -0.81098083D-02  0.10847524D-01
  0.81867880D-02 -0.14452717D-01 -0.90882566D-02 -0.14397325D-02 -0.11425803D-01
 -0.71848514D-02 -0.11382012D-02  0.10418889D-01  0.65516771D-02  0.10378957D-02
 -0.53917134D-02 -0.52146304D-02 -0.16251725D-02 -0.64662634D-03  0.86491497D-03
  0.65276423D-03 -0.21295660D-02 -0.13391282D-02 -0.21214041D-03  0.61476432D-03
  0.38658030D-03  0.61240815D-04  0.56421931D-04  0.35479624D-04  0.56205686D-05
 -0.41412821D-02 -0.40052678D-02 -0.12482670D-02 -0.56498700D-03  0.75571575D-03
  0.57034995D-03 -0.10989288D-02 -0.69103593D-03 -0.10947170D-03 -0.50440068D-03
 -0.31718068D-03 -0.50246749D-04 -0.91397266D-03 -0.57473054D-03 -0.91046973D-04
 -0.34430094D+00 -0.33299288D+00 -0.10377934D+00 -0.48865300D-01  0.65361287D-01
  0.49329138D-01 -0.52387179D-01 -0.32942464D-01 -0.52186398D-02 -0.37036873D-01
 -0.23289779D-01 -0.36894924D-02  0.41378069D-01  0.26019640D-01  0.41219482D-02
  0.30387116D-03  0.29389095D-03  0.91592973D-04  0.19302376D-02  0.18668418D-02
  0.58181304D-03  0.19947884D-03  0.19292725D-03  0.60126996D-04  0.18968322D-02
  0.18345335D-02  0.57174396D-03  0.11352934D-03  0.10980063D-03  0.34220061D-04
  0.60534183D-03  0.58546027D-03  0.18246239D-03  0.82827010D-04  0.80106679D-04
  0.24965753D-04  0.20213055D-03  0.19549186D-03  0.60926275D-04  0.29729733D-02
  0.28753303D-02  0.89611488D-03  0.10262470D-02  0.99254143D-03  0.30933181D-03
  0.27878437D-01  0.26962810D-01  0.84031303D-02
MO   10     MO 0.0        OCC NO =    2.0000000  ORB. ENERGY =   -0.945667
  0.66849809D+00  0.64654224D+00  0.20149898D+00  0.13687774D+00 -0.18308504D+00
 -0.13817701D+00  0.11408304D+00  0.71738477D-01  0.11364580D-01 -0.57670407D-01
 -0.36264700D-01 -0.57449377D-02 -0.99883486D-01 -0.62809416D-01 -0.99500668D-02
 -0.73126913D+00 -0.70725166D+00 -0.22041945D+00 -0.14456319D+00  0.19336495D+00
  0.14593541D+00  0.17859678D+00  0.11230645D+00  0.17791228D-01 -0.82431771D-01
 -0.51835310D-01 -0.82115840D-02 -0.15231491D+00 -0.95779703D-01 -0.15173114D-01
 -0.52710161D-01 -0.50978972D-01 -0.15887919D-01 -0.91377177D-02  0.12222436D-01
  0.92244545D-02 -0.11904163D-01 -0.74856573D-02 -0.11858539D-02 -0.15620483D-01
 -0.98225787D-02 -0.15560615D-02  0.45288967D-02  0.28478918D-02  0.45115390D-03
 -0.38653290D-02 -0.37383779D-02 -0.11650891D-02 -0.58082669D-03  0.77690262D-03
  0.58634000D-03 -0.16764304D-02 -0.10541844D-02 -0.16700052D-03  0.14033724D-02
  0.88247821D-03  0.13979937D-03 -0.12346938D-03 -0.77640859D-04 -0.12299616D-04
 -0.30474329D-01 -0.29473444D-01 -0.91855852D-02 -0.46694171D-02  0.62457226D-02
  0.47137400D-02 -0.10207557D-01 -0.64187855D-02 -0.10168435D-02  0.47440853D-02
  0.29832081D-02  0.47259029D-03  0.69510442D-02  0.43710031D-02  0.69244033D-03
  0.33117250D-02  0.32029562D-02  0.99822155D-03  0.36971321D-03 -0.49452128D-03
 -0.37322259D-03  0.15674305D-02  0.98564234D-03  0.15614231D-03  0.33663179D-03
  0.21168311D-03  0.33534160D-04  0.14000927D-03  0.88041587D-04  0.13947267D-04
 -0.30640218D-02 -0.29633885D-02 -0.92355875D-03 -0.44858601D-03  0.60002003D-03
  0.45284407D-03 -0.11037634D-02 -0.69407602D-03 -0.10995330D-03  0.55606277D-04