 opt valine m062x
GAUSSIAN             32 MOL ORBITALS    153 PRIMITIVES       19 NUCLEI
  O    1    (CENTRE  1)  -2.07502310 -3.32714397 -0.33592744  CHARGE =  8.0
  O    2    (CENTRE  2)  -3.67708307  0.26459890  1.60740010  CHARGE =  8.0
  N    3    (CENTRE  3)  -0.94800626  3.56437738 -1.46109877  CHARGE =  7.0
  C    4    (CENTRE  4)   2.52943743  0.51334196 -0.37700286  CHARGE =  6.0
  C    5    (CENTRE  5)  -0.19842686  0.81786301 -1.48031062  CHARGE =  6.0
  C    6    (CENTRE  6)   3.49680631 -2.22385107 -0.73070126  CHARGE =  6.0
  C    7    (CENTRE  7)   2.63157045  1.32601961  2.42981153  CHARGE =  6.0
  C    8    (CENTRE  8)  -2.17044733 -0.71554810  0.10408515  CHARGE =  6.0
  H    9    (CENTRE  9)   3.73585268  1.80541404 -1.47220480  CHARGE =  1.0
  H   10    (CENTRE 10)  -0.20128548  0.10619349 -3.43791566  CHARGE =  1.0
  H   11    (CENTRE 11)   3.60520539 -2.69788955 -2.74292764  CHARGE =  1.0
  H   12    (CENTRE 12)   2.20586693 -3.56107019  0.18138649  CHARGE =  1.0
  H   13    (CENTRE 13)   5.38131281 -2.43024369  0.10022008  CHARGE =  1.0
  H   14    (CENTRE 14)   1.43823654  0.09715932  3.59388997  CHARGE =  1.0
  H   15    (CENTRE 15)   4.57407965  1.20505094  3.13392810  CHARGE =  1.0
  H   16    (CENTRE 16)   1.97716129  3.27858845  2.63528687  CHARGE =  1.0
  H   17    (CENTRE 17)  -1.88545836  3.75969190  0.29403214  CHARGE =  1.0
  H   18    (CENTRE 18)  -2.46965997  3.68216181 -2.74340790  CHARGE =  1.0
  H   19    (CENTRE 19)  -3.44205837 -4.00229008  0.83833081  CHARGE =  1.0
CENTRE ASSIGNMENTS    1  1  1  1  1  1  1  1  1  1  1  1  1  1  1  2  2  2  2  2
CENTRE ASSIGNMENTS    2  2  2  2  2  2  2  2  2  2  3  3  3  3  3  3  3  3  3  3
CENTRE ASSIGNMENTS    3  3  3  3  3  4  4  4  4  4  4  4  4  4  4  4  4  4  4  4
CENTRE ASSIGNMENTS    5  5  5  5  5  5  5  5  5  5  5  5  5  5  5  6  6  6  6  6
CENTRE ASSIGNMENTS    6  6  6  6  6  6  6  6  6  6  7  7  7  7  7  7  7  7  7  7
CENTRE ASSIGNMENTS    7  7  7  7  7  8  8  8  8  8  8  8  8  8  8  8  8  8  8  8
CENTRE ASSIGNMENTS    9  9  9 10 10 10 11 11 11 12 12 12 13 13 13 14 14 14 15 15
CENTRE ASSIGNMENTS   15 16 16 16 17 17 17 18 18 18 19 19 19
TYPE ASSIGNMENTS      1  1  1  1  1  1  2  2  2  3  3  3  4  4  4  1  1  1  1  1
TYPE ASSIGNMENTS      1  2  2  2  3  3  3  4  4  4  1  1  1  1  1  1  2  2  2  3
TYPE ASSIGNMENTS      3  3  4  4  4  1  1  1  1  1  1  2  2  2  3  3  3  4  4  4
TYPE ASSIGNMENTS      1  1  1  1  1  1  2  2  2  3  3  3  4  4  4  1  1  1  1  1
TYPE ASSIGNMENTS      1  2  2  2  3  3  3  4  4  4  1  1  1  1  1  1  2  2  2  3
TYPE ASSIGNMENTS      3  3  4  4  4  1  1  1  1  1  1  2  2  2  3  3  3  4  4  4
TYPE ASSIGNMENTS      1  1  1  1  1  1  1  1  1  1  1  1  1  1  1  1  1  1  1  1
TYPE ASSIGNMENTS      1  1  1  1  1  1  1  1  1  1  1  1  1
EXPONENTS  0.1307093D+03 0.2380887D+02 0.6443608D+01 0.5033151D+01 0.1169596D+01
EXPONENTS  0.3803890D+00 0.5033151D+01 0.1169596D+01 0.3803890D+00 0.5033151D+01
EXPONENTS  0.1169596D+01 0.3803890D+00 0.5033151D+01 0.1169596D+01 0.3803890D+00
EXPONENTS  0.1307093D+03 0.2380887D+02 0.6443608D+01 0.5033151D+01 0.1169596D+01
EXPONENTS  0.3803890D+00 0.5033151D+01 0.1169596D+01 0.3803890D+00 0.5033151D+01
EXPONENTS  0.1169596D+01 0.3803890D+00 0.5033151D+01 0.1169596D+01 0.3803890D+00
EXPONENTS  0.9910617D+02 0.1805231D+02 0.4885660D+01 0.3780456D+01 0.8784966D+00
EXPONENTS  0.2857144D+00 0.3780456D+01 0.8784966D+00 0.2857144D+00 0.3780456D+01
EXPONENTS  0.8784966D+00 0.2857144D+00 0.3780456D+01 0.8784966D+00 0.2857144D+00
EXPONENTS  0.7161684D+02 0.1304510D+02 0.3530512D+01 0.2941249D+01 0.6834831D+00
EXPONENTS  0.2222899D+00 0.2941249D+01 0.6834831D+00 0.2222899D+00 0.2941249D+01
EXPONENTS  0.6834831D+00 0.2222899D+00 0.2941249D+01 0.6834831D+00 0.2222899D+00
EXPONENTS  0.7161684D+02 0.1304510D+02 0.3530512D+01 0.2941249D+01 0.6834831D+00
EXPONENTS  0.2222899D+00 0.2941249D+01 0.6834831D+00 0.2222899D+00 0.2941249D+01
EXPONENTS  0.6834831D+00 0.2222899D+00 0.2941249D+01 0.6834831D+00 0.2222899D+00
EXPONENTS  0.7161684D+02 0.1304510D+02 0.3530512D+01 0.2941249D+01 0.6834831D+00
EXPONENTS  0.2222899D+00 0.2941249D+01 0.6834831D+00 0.2222899D+00 0.2941249D+01
EXPONENTS  0.6834831D+00 0.2222899D+00 0.2941249D+01 0.6834831D+00 0.2222899D+00
EXPONENTS  0.7161684D+02 0.1304510D+02 0.3530512D+01 0.2941249D+01 0.6834831D+00
EXPONENTS  0.2222899D+00 0.2941249D+01 0.6834831D+00 0.2222899D+00 0.2941249D+01
EXPONENTS  0.6834831D+00 0.2222899D+00 0.2941249D+01 0.6834831D+00 0.2222899D+00
EXPONENTS  0.7161684D+02 0.1304510D+02 0.3530512D+01 0.2941249D+01 0.6834831D+00
EXPONENTS  0.2222899D+00 0.2941249D+01 0.6834831D+00 0.2222899D+00 0.2941249D+01
EXPONENTS  0.6834831D+00 0.2222899D+00 0.2941249D+01 0.6834831D+00 0.2222899D+00
EXPONENTS  0.3425251D+01 0.6239137D+00 0.1688554D+00 0.3425251D+01 0.6239137D+00
EXPONENTS  0.1688554D+00 0.3425251D+01 0.6239137D+00 0.1688554D+00 0.3425251D+01
EXPONENTS  0.6239137D+00 0.1688554D+00 0.3425251D+01 0.6239137D+00 0.1688554D+00
EXPONENTS  0.3425251D+01 0.6239137D+00 0.1688554D+00 0.3425251D+01 0.6239137D+00
EXPONENTS  0.1688554D+00 0.3425251D+01 0.6239137D+00 0.1688554D+00 0.3425251D+01
EXPONENTS  0.6239137D+00 0.1688554D+00 0.3425251D+01 0.6239137D+00 0.1688554D+00
EXPONENTS  0.3425251D+01 0.6239137D+00 0.1688554D+00
MO    1     MO 0.0        OCC NO =    2.0000000  ORB. ENERGY =  -19.435813
  0.42264827D+01  0.40876701D+01  0.12739482D+01 -0.63881367D-02  0.85446489D-02
  0.64487740D-02 -0.39638173D-02 -0.24925547D-02 -0.39486254D-03  0.39184781D-02
  0.24640442D-02  0.39034600D-03  0.42499246D-02  0.26724667D-02  0.42336362D-03
  0.35897356D-02  0.34718360D-02  0.10820196D-02 -0.54997532D-04  0.73563642D-04
  0.55519578D-04 -0.29224013D-03 -0.18376843D-03 -0.29112007D-04 -0.99656770D-03
 -0.62666851D-03 -0.99274821D-04  0.12913818D-03  0.81205551D-04  0.12864324D-04
  0.55076360D-05  0.53267458D-05  0.16601140D-05 -0.27141705D-05  0.36304223D-05
  0.27399338D-05  0.44336321D-04  0.27879869D-04  0.44166396D-05  0.43767561D-04
  0.27522217D-04  0.43599815D-05 -0.11755949D-04 -0.73924561D-05 -0.11710892D-05
 -0.20700520D-04 -0.20020642D-04 -0.62395596D-05 -0.39138492D-05  0.52350895D-05
  0.39510002D-05 -0.23581987D-04 -0.14828986D-04 -0.23491606D-05 -0.15369552D-04
 -0.96647866D-05 -0.15310646D-05  0.25188976D-04  0.15839504D-04  0.25092436D-05
 -0.60998595D-04 -0.58995186D-04 -0.18386223D-04 -0.44146696D-04  0.59049772D-04
  0.44565744D-04 -0.42694763D-04 -0.26847613D-04 -0.42531129D-05 -0.28239207D-03
 -0.17757571D-03 -0.28130977D-04 -0.58315791D-04 -0.36670535D-04 -0.58092288D-05
 -0.65119270D-04 -0.62980523D-04 -0.19628278D-04 -0.40458336D-04  0.54116293D-04
  0.40842374D-04 -0.53785886D-04 -0.33822009D-04 -0.53579744D-05 -0.12203283D-03
 -0.76737519D-04 -0.12156512D-04  0.92330125D-04  0.58059661D-04  0.91976257D-05
  0.55888754D-05  0.54053170D-05  0.16846012D-05  0.51421410D-05 -0.68780290D-05
 -0.51909511D-05  0.36580271D-05  0.23002656D-05  0.36440072D-06 -0.35614118D-06
 -0.22395113D-06 -0.35477622D-07 -0.88680133D-05 -0.55764447D-05 -0.88340254D-06
  0.14542746D-02  0.14065111D-02  0.43834807D-03  0.72998497D-03 -0.97641388D-03
 -0.73691412D-03 -0.21914136D-03 -0.13780197D-03 -0.21830147D-04  0.40217640D-02
  0.25289931D-02  0.40063500D-03  0.75084943D-03  0.47215427D-03  0.74797169D-04
  0.50093300D-05  0.48448059D-05  0.15099144D-05 -0.34533835D-04 -0.33399622D-04
 -0.10409203D-04 -0.53209973D-05 -0.51462369D-05 -0.16038573D-05 -0.15530406D-03
 -0.15020333D-03 -0.46811817D-04 -0.79694436D-05 -0.77076989D-05 -0.24021531D-05
  0.17399954D-04  0.16828478D-04  0.52447016D-05  0.98922907D-06  0.95673929D-06
  0.29817385D-06  0.84320877D-06  0.81551481D-06  0.25416034D-06 -0.27361545D-04
 -0.26462896D-04 -0.82473287D-05  0.11255912D-05  0.10886228D-05  0.33927617D-06
 -0.16113630D-02 -0.15584402D-02 -0.48569773D-03
MO    2     MO 0.0        OCC NO =    2.0000000  ORB. ENERGY =  -19.379523
 -0.39176949D-02 -0.37890240D-02 -0.11808733D-02 -0.62651314D-04  0.83801193D-04
  0.63246011D-04 -0.64106084D-03 -0.40311626D-03 -0.63860388D-04  0.10678846D-03
  0.67151450D-04  0.10637918D-04  0.59995138D-03  0.37726553D-03  0.59765198D-04
  0.42267512D+01  0.40879298D+01  0.12740292D+01 -0.64131931D-02  0.85781639D-02
  0.64740683D-02  0.61699953D-02  0.38798586D-02  0.61463479D-03 -0.39928315D-02
 -0.25107996D-02 -0.39775284D-03 -0.61540762D-02 -0.38698482D-02 -0.61304898D-03
 -0.76130932D-04 -0.73630523D-04 -0.22947418D-04 -0.39730390D-04  0.53142607D-04
  0.40107518D-04 -0.17982239D-03 -0.11307714D-03 -0.17913319D-04  0.90345156D-04
  0.56811459D-04  0.89998895D-05  0.23832995D-03  0.14986827D-03  0.23741651D-04
 -0.12694346D-04 -0.12277419D-04 -0.38263353D-05 -0.29262472D-05  0.39140921D-05
  0.29540237D-05 -0.21119986D-04 -0.13280814D-04 -0.21039040D-05 -0.15571136D-04
 -0.97915482D-05 -0.15511457D-05 -0.10393975D-04 -0.65360103D-05 -0.10354138D-05
 -0.58110799D-04 -0.56202235D-04 -0.17515782D-04 -0.29377861D-04  0.39295263D-04
  0.29656721D-04 -0.21735881D-03 -0.13668105D-03 -0.21652575D-04  0.28172286D-03
  0.17715489D-03  0.28064312D-04  0.22079503D-03  0.13884184D-03  0.21994880D-04
  0.90292608D-05  0.87327079D-05  0.27216036D-05  0.27510351D-05 -0.36797317D-05
 -0.27771484D-05  0.23933951D-04  0.15050311D-04  0.23842221D-05 -0.47900881D-05
 -0.30121360D-05 -0.47717294D-06  0.74455144D-06  0.46819393D-06  0.74169784D-07
 -0.20724440D-04 -0.20043776D-04 -0.62467694D-05 -0.50162930D-05  0.67096971D-05
  0.50639085D-05 -0.43750207D-04 -0.27511304D-04 -0.43582528D-05 -0.16123183D-04
 -0.10138690D-04 -0.16061389D-05 -0.15170934D-04 -0.95398902D-05 -0.15112789D-05
  0.16485847D-02  0.15944394D-02  0.49691710D-03  0.11872143D-02 -0.15879951D-02
 -0.11984836D-02  0.37594801D-02  0.23640620D-02  0.37450713D-03 -0.24203179D-02
 -0.15219608D-02 -0.24110416D-03 -0.37481243D-02 -0.23569211D-02 -0.37337591D-03
  0.20631162D-05  0.19953561D-05  0.62186535D-06  0.71696257D-05  0.69341498D-05
  0.21610716D-05  0.56838709D-06  0.54971925D-06  0.17132348D-06 -0.13196159D-05
 -0.12762751D-05 -0.39775920D-06 -0.17963531D-05 -0.17373545D-05 -0.54145751D-06
  0.11866967D-05  0.11477214D-05  0.35769462D-06  0.35422866D-05  0.34259454D-05
  0.10677175D-05  0.24937969D-05  0.24118918D-05  0.75168133D-06 -0.16649129D-03
 -0.16102313D-03 -0.50183875D-04  0.57151447D-06  0.55274392D-06  0.17226614D-06
 -0.36392607D-04 -0.35197345D-04 -0.10969475D-04
MO    3     MO 0.0        OCC NO =    2.0000000  ORB. ENERGY =  -14.539397
  0.23676254D-04  0.22898642D-04  0.71365064D-05  0.46114111D-05 -0.61681349D-05
 -0.46551834D-05 -0.67431567D-04 -0.42402779D-04 -0.67173126D-05 -0.25135576D-04
 -0.15805925D-04 -0.25039241D-05  0.51198615D-04  0.32195063D-04  0.51002388D-05
 -0.16842178D-03 -0.16289022D-03 -0.50765766D-04 -0.39741371D-04  0.53157294D-04
  0.40118603D-04  0.57032751D-04  0.35863724D-04  0.56814165D-05  0.36848972D-03
  0.23171622D-03  0.36707743D-04  0.18215722D-04  0.11454535D-04  0.18145908D-05
  0.34310665D+01  0.33183782D+01  0.10341935D+01 -0.62824370D-02  0.84032670D-02
  0.63420710D-02 -0.49857631D-02 -0.31351816D-02 -0.49666544D-03 -0.39090805D-02
 -0.24581347D-02 -0.38940984D-03  0.10973775D-02  0.69006045D-03  0.10931717D-03
 -0.16935208D-04 -0.16378996D-04 -0.51046177D-05 -0.45725547D-04  0.61161613D-04
  0.46159581D-04 -0.73833715D-04 -0.46428622D-04 -0.73550737D-05  0.95775922D-04
  0.60226470D-04  0.95408847D-05 -0.59001966D-04 -0.37102020D-04 -0.58775833D-05
  0.14759246D-02  0.14274501D-02  0.44487384D-03  0.86795423D-03 -0.11609589D-02
 -0.87619300D-03  0.11749163D-02  0.73881893D-03  0.11704133D-03 -0.38901133D-02
 -0.24462076D-02 -0.38752039D-03 -0.62626710D-05 -0.39381356D-05 -0.62386684D-06
  0.26138161D-04  0.25279691D-04  0.78785755D-05  0.95787670D-05 -0.12812375D-04
 -0.96696903D-05  0.87666767D-04  0.55127216D-04  0.87330772D-05 -0.34182967D-04
 -0.21495167D-04 -0.34051956D-05  0.23908310D-04  0.15034187D-04  0.23816678D-05
 -0.24085275D-04 -0.23294229D-04 -0.72597937D-05 -0.88429115D-05  0.11828108D-04
  0.89268499D-05 -0.66574890D-04 -0.41864078D-04 -0.66319733D-05  0.43208769D-05
  0.27170833D-05  0.43043165D-06  0.69354212D-05  0.43611790D-05  0.69088402D-06
 -0.56774807D-04 -0.54910121D-04 -0.17113086D-04 -0.67063286D-04  0.89702563D-04
  0.67699863D-04  0.40242324D-04  0.25305454D-04  0.40088090D-05  0.27904513D-03
  0.17547107D-03  0.27797565D-04 -0.47551293D-04 -0.29901529D-04 -0.47369046D-05
 -0.45130664D-04 -0.43648413D-04 -0.13603304D-04  0.11558263D-03  0.11178649D-03
  0.34838966D-04 -0.37258585D-05 -0.36034881D-05 -0.11230499D-05 -0.40297503D-05
 -0.38973991D-05 -0.12146491D-05 -0.64468809D-05 -0.62351425D-05 -0.19432216D-05
  0.36069821D-05  0.34885160D-05  0.10872181D-05  0.46828204D-05  0.45290201D-05
  0.14114977D-05 -0.90568063D-05 -0.87593488D-05 -0.27299064D-05 -0.19626970D-02
 -0.18982351D-02 -0.59159698D-03 -0.19649463D-02 -0.19004105D-02 -0.59227495D-03
 -0.11288440D-05 -0.10917688D-05 -0.34025663D-06
MO    4     MO 0.0        OCC NO =    2.0000000  ORB. ENERGY =  -10.484635
  0.21422323D-02  0.20718738D-02  0.64571258D-03  0.11692651D-02 -0.15639865D-02
 -0.11803639D-02 -0.17779755D-03 -0.11180387D-03 -0.17711611D-04 -0.55877686D-02
 -0.35137388D-02 -0.55663527D-03 -0.55973701D-03 -0.35197765D-03 -0.55759174D-04
  0.16998873D-02  0.16440570D-02  0.51238074D-03  0.16299652D-02 -0.21802101D-02
 -0.16454371D-02 -0.28274523D-02 -0.17779779D-02 -0.28166157D-03  0.20303557D-02
  0.12767421D-02  0.20225740D-03  0.28438835D-02  0.17883103D-02  0.28329839D-03
 -0.10292939D-03 -0.99548823D-04 -0.31025020D-04 -0.10527101D-03  0.14080848D-03
  0.10627026D-03 -0.15415645D-04 -0.96937714D-05 -0.15356562D-05 -0.29399345D-04
 -0.18487097D-04 -0.29286668D-05  0.13792975D-03  0.86733926D-04  0.13740111D-04
 -0.10364121D-02 -0.10023727D-02 -0.31239579D-03 -0.14015029D-04  0.18746234D-04
  0.14148062D-04  0.95847279D-04  0.60271341D-04  0.95479930D-05  0.15953043D-03
  0.10031701D-03  0.15891901D-04 -0.12438585D-03 -0.78217158D-04 -0.12390912D-04
 -0.14367374D-01 -0.13895498D-01 -0.43306198D-02  0.97185888D-03 -0.12999398D-02
 -0.98108393D-03  0.27409236D-02  0.17235663D-02  0.27304187D-03  0.19265095D-02
  0.12114409D-02  0.19191259D-03 -0.21892427D-02 -0.13766546D-02 -0.21808521D-03
  0.74106448D-04  0.71672530D-04  0.22337197D-04 -0.29401050D-04  0.39326279D-04
  0.29680130D-04  0.14390164D-04  0.90489212D-05  0.14335011D-05 -0.73054014D-04
 -0.45938325D-04 -0.72774024D-05  0.35454533D-04  0.22294761D-04  0.35318648D-05
 -0.11288583D-03 -0.10917826D-03 -0.34026095D-04 -0.36898464D-04  0.49354676D-04
  0.37248710D-04  0.10804734D-03  0.67943066D-04  0.10763323D-04 -0.53448137D-04
 -0.33609623D-04 -0.53243289D-05  0.18263063D-03  0.11484304D-03  0.18193067D-04
  0.26861459D+01  0.25979234D+01  0.80965925D+00 -0.55320107D-02  0.73995112D-02
  0.55845215D-02 -0.50341054D-03 -0.31655805D-03 -0.50148114D-04  0.27708221D-03
  0.17423673D-03  0.27602025D-04  0.55002430D-03  0.34587004D-03  0.54791625D-04
 -0.48502126D-04 -0.46909145D-04 -0.14619532D-04 -0.17204543D-04 -0.16639485D-04
 -0.51858006D-05 -0.19505074D-05 -0.18864458D-05 -0.58792277D-06 -0.11548064D-03
 -0.11168785D-03 -0.34808224D-04 -0.77845786D-05 -0.75289055D-05 -0.23464310D-05
 -0.20400660D-03 -0.19730630D-03 -0.61491756D-04 -0.23287360D-04 -0.22522521D-04
 -0.70192861D-05  0.37024761D-05  0.35808737D-05  0.11160019D-05 -0.21375892D-03
 -0.20673832D-03 -0.64431304D-04 -0.52313954D-04 -0.50595778D-04 -0.15768494D-04
 -0.44192249D-03 -0.42740819D-03 -0.13320447D-03
MO    5     MO 0.0        OCC NO =    2.0000000  ORB. ENERGY =  -10.421015
 -0.59887273D-04 -0.57920363D-04 -0.18051247D-04 -0.57956486D-04  0.77521482D-04
  0.58506619D-04  0.36236782D-04  0.22786661D-04  0.36097899D-05  0.18543641D-03
  0.11660739D-03  0.18472570D-04 -0.59304926D-04 -0.37292529D-04 -0.59077631D-05
 -0.91477835D-04 -0.88473379D-04 -0.27573288D-04 -0.43577584D-04  0.58288539D-04
  0.43991230D-04  0.28034671D-03  0.17628954D-03  0.27927225D-04  0.35483289D-03
  0.22312844D-03  0.35347294D-04 -0.23286604D-03 -0.14643241D-03 -0.23197355D-04
  0.22559490D-02  0.21818556D-02  0.67998910D-03  0.10637998D-02 -0.14229181D-02
 -0.10738975D-02 -0.15739808D-02 -0.98976137D-03 -0.15679483D-03  0.49484670D-02
  0.31117289D-02  0.49295013D-03  0.11738827D-03  0.73816893D-04  0.11693836D-04
 -0.31151557D-01 -0.30128430D-01 -0.93897155D-02  0.10745044D-02 -0.14372364D-02
 -0.10847038D-02  0.39076402D-02  0.24572290D-02  0.38926636D-03 -0.47938734D-03
 -0.30145162D-03 -0.47755001D-04  0.15693667D-02  0.98685991D-03  0.15633519D-03
  0.26841202D+01  0.25959642D+01  0.80904866D+00 -0.63223104D-02  0.84566009D-02
  0.63823228D-02 -0.12649567D-03 -0.79543873D-04 -0.12601086D-04 -0.30842859D-03
 -0.19394817D-03 -0.30724649D-04 -0.25859821D-03 -0.16261350D-03 -0.25760710D-04
 -0.12744847D-02 -0.12326261D-02 -0.38415572D-03 -0.28768695D-04  0.38480453D-04
  0.29041772D-04  0.74573088D-04  0.46893559D-04  0.74287276D-05  0.91001133D-04
  0.57223955D-04  0.90652358D-05  0.70787742D-04  0.44513232D-04  0.70516437D-05
 -0.13772140D-02 -0.13319814D-02 -0.41512042D-03 -0.29817214D-04  0.39882933D-04
  0.30100245D-04  0.13735827D-03  0.86374568D-04  0.13683183D-04 -0.30231528D-04
 -0.19010396D-04 -0.30115662D-05 -0.45041794D-04 -0.28323489D-04 -0.44869165D-05
  0.17899963D-01  0.17312065D-01  0.53954144D-02  0.10013346D-02 -0.13393659D-02
 -0.10108394D-02 -0.28762368D-02 -0.18086549D-02 -0.28652132D-03 -0.23084561D-02
 -0.14516192D-02 -0.22996086D-03  0.23261928D-02  0.14627724D-02  0.23172773D-03
  0.35755920D-04  0.34581569D-04  0.10777565D-04 -0.22719851D-02 -0.21973651D-02
 -0.68482272D-03  0.20267532D-04  0.19601875D-04  0.61090482D-05 -0.15405423D-04
 -0.14899454D-04 -0.46435092D-05 -0.37003599D-04 -0.35788270D-04 -0.11153640D-04
  0.23702269D-05  0.22923803D-05  0.71443480D-06 -0.39028904D-04 -0.37747057D-04
 -0.11764109D-04 -0.23133718D-04 -0.22373925D-04 -0.69729752D-05 -0.13697170D-03
 -0.13247306D-03 -0.41286067D-04 -0.12266381D-03 -0.11863510D-03 -0.36973378D-04
 -0.35611588D-04 -0.34441977D-04 -0.10734060D-04
MO    6     MO 0.0        OCC NO =    2.0000000  ORB. ENERGY =  -10.390686
 -0.46469766D-04 -0.44943535D-04 -0.14006937D-04 -0.15468926D-04  0.20690939D-04
  0.15615760D-04  0.33277513D-04  0.20925793D-04  0.33149972D-05  0.88110855D-04
  0.55406470D-04  0.87773157D-05 -0.10841266D-04 -0.68172789D-05 -0.10799715D-05
 -0.27506479D-04 -0.26603069D-04 -0.82910145D-05 -0.55885803D-05  0.74751776D-05
  0.56416281D-05  0.72389188D-04  0.45520264D-04  0.72111746D-05 -0.88923954D-05
 -0.55917769D-05 -0.88583140D-06  0.76843237D-05  0.48321090D-05  0.76548724D-06
  0.47621619D-04  0.46057557D-04  0.14354129D-04 -0.30664002D-04  0.41015579D-04
  0.30955070D-04 -0.53487614D-04 -0.33634447D-04 -0.53282615D-05 -0.74259575D-04
 -0.46696414D-04 -0.73974965D-05 -0.92195624D-04 -0.57975083D-04 -0.91842271D-05
  0.26831318D+01  0.25950083D+01  0.80875073D+00 -0.64813997D-02  0.86693957D-02
  0.65429223D-02  0.27478804D-03  0.17279410D-03  0.27373488D-04  0.22534529D-03
  0.14170316D-03  0.22448162D-04 -0.14087037D-03 -0.88583068D-04 -0.14033046D-04
  0.34610181D-01  0.33473460D-01  0.10432215D-01  0.94268665D-03 -0.12609196D-02
 -0.95163480D-03 -0.39523414D-02 -0.24853384D-02 -0.39371935D-03  0.41467119D-03
  0.26075637D-03  0.41308190D-04 -0.16099499D-02 -0.10123797D-02 -0.16037795D-03
 -0.41582131D-01 -0.40216427D-01 -0.12533704D-01  0.11482735D-02 -0.15359086D-02
 -0.11591731D-02  0.14305461D-02  0.89956575D-03  0.14250633D-03 -0.40663454D-02
 -0.25570271D-02 -0.40507605D-03 -0.51330767D-03 -0.32278164D-03 -0.51134035D-04
 -0.44395213D-01 -0.42937118D-01 -0.13381624D-01  0.11565138D-02 -0.15469306D-02
 -0.11674916D-02  0.15714588D-03  0.98817549D-04  0.15654360D-04  0.12010475D-02
  0.75525091D-03  0.11964443D-03  0.41695711D-02  0.26219382D-02  0.41535906D-03
  0.14977104D-02  0.14485203D-02  0.45144052D-03  0.13405906D-04 -0.17931482D-04
 -0.13533157D-04 -0.79985544D-04 -0.50297057D-04 -0.79678988D-05  0.48893570D-04
  0.30745589D-04  0.48706178D-05 -0.38647216D-04 -0.24302406D-04 -0.38499095D-05
 -0.22734932D-02 -0.21988237D-02 -0.68527730D-03  0.27254775D-05  0.26359632D-05
  0.82151460D-06  0.67184193D-04  0.64977626D-04  0.20250688D-04  0.47590727D-04
  0.46027679D-04  0.14344817D-04  0.61853346D-04  0.59821863D-04  0.18643862D-04
  0.52647251D-04  0.50918129D-04  0.15868957D-04  0.64176167D-04  0.62068395D-04
  0.19344008D-04  0.69630388D-04  0.67343480D-04  0.20988021D-04  0.66894920D-06
  0.64697854D-06  0.20163495D-06 -0.39569205D-04 -0.38269612D-04 -0.11926967D-04
  0.45138927D-06  0.43656405D-06  0.13605794D-06
MO    7     MO 0.0        OCC NO =    2.0000000  ORB. ENERGY =  -10.369728
  0.81867336D-05  0.79178524D-05  0.24676487D-05  0.61783883D-05 -0.82640935D-05
 -0.62370347D-05  0.32422142D-04  0.20387913D-04  0.32297880D-05 -0.19197752D-04
 -0.12072062D-04 -0.19124174D-05  0.13101714D-04  0.82387090D-05  0.13051499D-05
 -0.48113092D-04 -0.46532888D-04 -0.14502269D-04 -0.14704967D-04  0.19669082D-04
  0.14844550D-04  0.89315439D-04  0.56163945D-04  0.88973125D-05  0.60527328D-05
  0.38061208D-05  0.60295348D-06  0.28796354D-04  0.18107920D-04  0.28685988D-05
 -0.44171796D-04 -0.42721038D-04 -0.13314281D-04 -0.15834876D-04  0.21180426D-04
  0.15985184D-04  0.65149795D-04  0.40967939D-04  0.64900099D-05 -0.23658563D-06
 -0.14877139D-06 -0.23567888D-07  0.18343149D-04  0.11534664D-04  0.18272846D-05
  0.46709119D-01  0.45175026D-01  0.14079082D-01  0.89106535D-03 -0.11918719D-02
 -0.89952349D-03 -0.11354885D-03 -0.71402563D-04 -0.11311366D-04 -0.13030212D-02
 -0.81937467D-03 -0.12980271D-03 -0.41507311D-02 -0.26100911D-02 -0.41348228D-03
  0.20733636D-02  0.20052670D-02  0.62495412D-03 -0.66999667D-05  0.89617467D-05
  0.67635639D-05 -0.90128956D-05 -0.56675506D-05 -0.89783523D-06 -0.55003533D-04
 -0.34587698D-04 -0.54792724D-05 -0.11808768D-03 -0.74256704D-04 -0.11763509D-04
 -0.68977759D-01 -0.66712285D-01 -0.20791305D-01  0.16719188D-03 -0.22363265D-03
 -0.16877890D-03  0.12940143D-04  0.81371093D-05  0.12890548D-05 -0.18492657D-04
 -0.11628679D-04 -0.18421781D-05 -0.11686337D-03 -0.73486820D-04 -0.11641547D-04
  0.26827952D+01  0.25946827D+01  0.80864927D+00 -0.66162742D-02  0.88498012D-02
  0.66790770D-02  0.42352460D-04  0.26632363D-04  0.42190138D-05  0.98581428D-04
  0.61990648D-04  0.98203601D-05  0.41092689D-03  0.25840185D-03  0.40935195D-04
  0.14869611D-03  0.14381240D-03  0.44820045D-04 -0.30874495D-05  0.41297131D-05
  0.31167561D-05 -0.12998328D-04 -0.81736972D-05 -0.12948510D-05 -0.76305032D-04
 -0.47982652D-04 -0.76012582D-05 -0.21113351D-04 -0.13276642D-04 -0.21032431D-05
 -0.94572824D-05 -0.91466718D-05 -0.28506181D-05 -0.40176409D-04 -0.38856873D-04
 -0.12109990D-04  0.21206960D-04  0.20510448D-04  0.63922109D-05  0.68650650D-04
  0.66395920D-04  0.20692708D-04  0.59421103D-04  0.57469504D-04  0.17910734D-04
 -0.22634300D-02 -0.21890910D-02 -0.68224403D-03 -0.22637730D-02 -0.21894227D-02
 -0.68234742D-03 -0.22606905D-02 -0.21864414D-02 -0.68141828D-03  0.13586524D-04
  0.13140295D-04  0.40952560D-05 -0.37917915D-06 -0.36672557D-06 -0.11429234D-06
  0.33626310D-05  0.32521903D-05  0.10135657D-05
MO    8     MO 0.0        OCC NO =    2.0000000  ORB. ENERGY =  -10.368290
 -0.11556106D-03 -0.11176562D-03 -0.34832462D-04 -0.39113213D-04  0.52317082D-04
  0.39484482D-04  0.25004200D-03  0.15723312D-03  0.24908368D-04 -0.83613343D-04
 -0.52578314D-04 -0.83292883D-05  0.59238329D-04  0.37250651D-04  0.59011290D-05
  0.16350873D-04  0.15813852D-04  0.49284870D-05  0.73916032D-05 -0.98868664D-05
 -0.74617655D-05 -0.25266574D-04 -0.15888300D-04 -0.25169736D-05  0.12979348D-04
  0.81617625D-05  0.12929603D-05  0.22716597D-04  0.14284806D-04  0.22629533D-05
  0.55872555D-04  0.54037502D-04  0.16841129D-04  0.17761879D-04 -0.23757947D-04
 -0.17930477D-04 -0.78182435D-04 -0.49163213D-04 -0.77882789D-05  0.68495455D-04
  0.43071780D-04  0.68232936D-05 -0.32929768D-04 -0.20707122D-04 -0.32803560D-05
  0.46283135D-01  0.44763033D-01  0.13950682D-01  0.94670598D-03 -0.12662957D-02
 -0.95569228D-03 -0.14369715D-02 -0.90360626D-03 -0.14314641D-03  0.40029367D-02
  0.25171540D-02  0.39875949D-03  0.42637866D-03  0.26811834D-03  0.42474450D-04
  0.20344165D-02  0.19675990D-02  0.61321468D-03 -0.73414144D-05  0.98197349D-05
  0.74111004D-05 -0.21751960D-04 -0.13678216D-04 -0.21668593D-05  0.11389927D-03
  0.71622918D-04  0.11346274D-04 -0.16324349D-04 -0.10265189D-04 -0.16261783D-05
  0.26828212D+01  0.25947079D+01  0.80865711D+00 -0.66193067D-02  0.88538575D-02
  0.66821383D-02  0.12326832D-03  0.77514429D-04  0.12279588D-04 -0.36996096D-03
 -0.23264138D-03 -0.36854303D-04 -0.72368028D-04 -0.45506958D-04 -0.72090668D-05
  0.68454834D-01  0.66206536D-01  0.20633685D-01 -0.17285832D-03  0.23121196D-03
  0.17449912D-03 -0.37570513D-04 -0.23625347D-04 -0.37426518D-05  0.11470380D-03
  0.72128827D-04  0.11426418D-04  0.22006574D-04  0.13838324D-04  0.21922230D-05
 -0.89412385D-04 -0.86475766D-04 -0.26950719D-04 -0.11641936D-04  0.15572029D-04
  0.11752443D-04  0.82316055D-05  0.51762544D-05  0.82000567D-06  0.18489609D-04
  0.11626762D-04  0.18418745D-05  0.32107114D-04  0.20189815D-04  0.31984059D-05
 -0.55475516D-05 -0.53653504D-05 -0.16721454D-05 -0.99193373D-05 -0.95935512D-05
 -0.29898909D-05 -0.22644080D-02 -0.21900368D-02 -0.68253881D-03 -0.22651202D-02
 -0.21907256D-02 -0.68275349D-03 -0.22626879D-02 -0.21883732D-02 -0.68202034D-03
 -0.57478377D-04 -0.55590584D-04 -0.17325157D-04 -0.45309202D-04 -0.43821087D-04
 -0.13657119D-04 -0.95339616D-04 -0.92208326D-04 -0.28737308D-04 -0.16994968D-05
 -0.16436794D-05 -0.51226306D-06 -0.35223963D-05 -0.34067083D-05 -0.10617222D-05
  0.11426511D-04  0.11051224D-04  0.34441838D-05
MO    9     MO 0.0        OCC NO =    2.0000000  ORB. ENERGY =   -1.150773
 -0.67158677D+00 -0.64952949D+00 -0.20242997D+00 -0.13390668D+00  0.17911101D+00
  0.13517775D+00 -0.10344365D+00 -0.65048142D-01 -0.10304719D-01  0.13783556D+00
  0.86674699D-01  0.13730728D-01  0.11549625D+00  0.72627143D-01  0.11505360D-01
 -0.57140508D+00 -0.55263811D+00 -0.17223316D+00 -0.10999170D+00  0.14712279D+00
  0.11103576D+00  0.13792988D+00  0.86734012D-01  0.13740125D-01 -0.10642189D+00
 -0.66920939D-01 -0.10601401D-01 -0.14059069D+00 -0.88407196D-01 -0.14005185D-01
 -0.30770100D-01 -0.29759501D-01 -0.92747367D-02 -0.51909168D-02  0.69432706D-02
  0.52401899D-02 -0.56263204D-02 -0.35379813D-02 -0.56047567D-03 -0.10857651D-01
 -0.68275821D-02 -0.10816037D-02  0.36376449D-02  0.22874487D-02  0.36237031D-03
 -0.11956852D-01 -0.11564147D-01 -0.36040395D-02 -0.15809271D-02  0.21146177D-02
  0.15959335D-02 -0.38814923D-02 -0.24407865D-02 -0.38666159D-03 -0.65547890D-03
 -0.41218272D-03 -0.65296668D-04 -0.42798364D-03 -0.26912760D-03 -0.42634333D-04
 -0.55948158D-01 -0.54110623D-01 -0.16863918D-01 -0.81821045D-02  0.10944226D-01
  0.82597704D-02 -0.14850277D-01 -0.93382527D-02 -0.14793361D-02 -0.10853019D-01
 -0.68246698D-02 -0.10811424D-02  0.11370158D-01  0.71498604D-02  0.11326580D-02
 -0.55684007D-02 -0.53855147D-02 -0.16784297D-02 -0.69594972D-03  0.93088897D-03
  0.70255579D-03 -0.22117244D-02 -0.13907916D-02 -0.22032476D-03  0.65623646D-03
  0.41265910D-03  0.65372134D-04  0.75284519D-04  0.47340926D-04  0.74995981D-05
 -0.46104656D-02 -0.44590416D-02 -0.13896885D-02 -0.63488489D-03  0.84920984D-03
  0.64091133D-03 -0.12794319D-02 -0.80454108D-03 -0.12745282D-03 -0.53906930D-03
 -0.33898124D-03 -0.53700324D-04 -0.93206147D-03 -0.58610527D-03 -0.92848921D-04
 -0.35172321D+00 -0.34017137D+00 -0.10601656D+00 -0.49542612D-01  0.66267246D-01
  0.50012879D-01 -0.55423808D-01 -0.34851978D-01 -0.55211388D-02 -0.31782818D-01
 -0.19985889D-01 -0.31661005D-02  0.46013453D-01  0.28934494D-01  0.45837100D-02
  0.31031097D-03  0.30011926D-03  0.93534065D-04  0.19759745D-02  0.19110766D-02
  0.59559909D-03  0.22465343D-03  0.21727501D-03  0.67715131D-04  0.17214697D-02
  0.16649306D-02  0.51888614D-03  0.11118064D-03  0.10752907D-03  0.33512116D-04
  0.67723369D-03  0.65499094D-03  0.20413207D-03  0.84066430D-04  0.81305391D-04
  0.25339339D-04  0.22079481D-03  0.21354313D-03  0.66552066D-04  0.26275063D-02
  0.25412097D-02  0.79198408D-03  0.10689462D-02  0.10338383D-02  0.32220223D-03
  0.25801135D-01  0.24953734D-01  0.77769890D-02
MO   10     MO 0.0        OCC NO =    2.0000000  ORB. ENERGY =   -1.063567
 -0.69359538D+00 -0.67081526D+00 -0.20906381D+00 -0.14234553D+00  0.19039864D+00
  0.14369669D+00 -0.97164274D-01 -0.61099503D-01 -0.96791878D-02  0.63745527D-01
  0.40084898D-01  0.63501213D-02  0.10017774D+00  0.62994452D-01  0.99793795D-02
  0.71196989D+00  0.68858628D+00  0.21460227D+00  0.14146442D+00 -0.18922009D+00
 -0.14280723D+00 -0.15013790D+00 -0.94410738D-01 -0.14956247D-01  0.76819676D-01
  0.48306274D-01  0.76525254D-02  0.14819004D+00  0.93185872D-01  0.14762208D-01
  0.46491347D-01  0.44964407D-01  0.14013442D-01  0.80822221D-02 -0.10810625D-01
 -0.81589400D-02  0.10124874D-01  0.63667926D-02  0.10086069D-02  0.12906458D-01
  0.81159273D-02  0.12856992D-02 -0.60019138D-02 -0.37741644D-02 -0.59789106D-03
  0.33231711D-02  0.32140264D-02  0.10016716D-02  0.49547560D-03 -0.66273865D-03
 -0.50017874D-03  0.14428996D-02  0.90733399D-03  0.14373695D-03 -0.14678352D-02
 -0.92301419D-03 -0.14622096D-03 -0.97575016D-04 -0.61357788D-04 -0.97201046D-05
  0.25335137D-01  0.24503042D-01  0.76365278D-02  0.39117601D-02 -0.52322952D-02
 -0.39488912D-02  0.84200680D-02  0.52947647D-02  0.83877968D-03 -0.54280017D-02
 -0.34132731D-02 -0.54071981D-03 -0.67823625D-02 -0.42649315D-02 -0.67563681D-03
 -0.37455253D-02 -0.36225090D-02 -0.11289778D-02 -0.45305320D-03  0.60599526D-03
  0.45735366D-03 -0.17946298D-02 -0.11285114D-02 -0.17877516D-03 -0.35778067D-03
 -0.22498209D-03 -0.35640943D-04 -0.13088418D-03 -0.82303487D-04 -0.13038255D-04
  0.34394669D-02  0.33265027D-02  0.10367256D-02  0.49809182D-03 -0.66623804D-03
 -0.50281979D-03  0.12479842D-02  0.78476598D-03  0.12432012D-03 -0.55731743D-04