 opt valine pbe0
GAUSSIAN             51 MOL ORBITALS    153 PRIMITIVES       19 NUCLEI
  O    1    (CENTRE  1)  -2.15045968 -3.28071283 -0.36330020  CHARGE =  8.0
  O    2    (CENTRE  2)  -3.70368226  0.29543248  1.63658686  CHARGE =  8.0
  N    3    (CENTRE  3)  -0.88473259  3.56419426 -1.52090284  CHARGE =  7.0
  C    4    (CENTRE  4)   2.52487658  0.48540558 -0.35467513  CHARGE =  6.0
  C    5    (CENTRE  5)  -0.19788385  0.81272509 -1.44913000  CHARGE =  6.0
  C    6    (CENTRE  6)   3.49937586 -2.23355522 -0.76371976  CHARGE =  6.0
  C    7    (CENTRE  7)   2.67399100  1.25398307  2.45520449  CHARGE =  6.0
  C    8    (CENTRE  8)  -2.19996165 -0.67935890  0.12023860  CHARGE =  6.0
  H    9    (CENTRE  9)   3.72339683  1.78974089 -1.44047251  CHARGE =  1.0
  H   10    (CENTRE 10)  -0.20250415  0.07617182 -3.39532815  CHARGE =  1.0
  H   11    (CENTRE 11)   3.57852032 -2.67916885 -2.78075082  CHARGE =  1.0
  H   12    (CENTRE 12)   2.24697386 -3.60163090  0.14904552  CHARGE =  1.0
  H   13    (CENTRE 13)   5.39836511 -2.43929419  0.02609600  CHARGE =  1.0
  H   14    (CENTRE 14)   1.49622739  0.02331515  3.62739322  CHARGE =  1.0
  H   15    (CENTRE 15)   4.62385561  1.10858190  3.12498373  CHARGE =  1.0
  H   16    (CENTRE 16)   2.04663432  3.20608504  2.71191369  CHARGE =  1.0
  H   17    (CENTRE 17)  -1.66607615  3.90511332  0.27549549  CHARGE =  1.0
  H   18    (CENTRE 18)  -2.49529545  3.65197061 -2.67856353  CHARGE =  1.0
  H   19    (CENTRE 19)  -3.52622174 -3.94319941  0.79270476  CHARGE =  1.0
CENTRE ASSIGNMENTS    1  1  1  1  1  1  1  1  1  1  1  1  1  1  1  2  2  2  2  2
CENTRE ASSIGNMENTS    2  2  2  2  2  2  2  2  2  2  3  3  3  3  3  3  3  3  3  3
CENTRE ASSIGNMENTS    3  3  3  3  3  4  4  4  4  4  4  4  4  4  4  4  4  4  4  4
CENTRE ASSIGNMENTS    5  5  5  5  5  5  5  5  5  5  5  5  5  5  5  6  6  6  6  6
CENTRE ASSIGNMENTS    6  6  6  6  6  6  6  6  6  6  7  7  7  7  7  7  7  7  7  7
CENTRE ASSIGNMENTS    7  7  7  7  7  8  8  8  8  8  8  8  8  8  8  8  8  8  8  8
CENTRE ASSIGNMENTS    9  9  9 10 10 10 11 11 11 12 12 12 13 13 13 14 14 14 15 15
CENTRE ASSIGNMENTS   15 16 16 16 17 17 17 18 18 18 19 19 19
TYPE ASSIGNMENTS      1  1  1  1  1  1  2  2  2  3  3  3  4  4  4  1  1  1  1  1
TYPE ASSIGNMENTS      1  2  2  2  3  3  3  4  4  4  1  1  1  1  1  1  2  2  2  3
TYPE ASSIGNMENTS      3  3  4  4  4  1  1  1  1  1  1  2  2  2  3  3  3  4  4  4
TYPE ASSIGNMENTS      1  1  1  1  1  1  2  2  2  3  3  3  4  4  4  1  1  1  1  1
TYPE ASSIGNMENTS      1  2  2  2  3  3  3  4  4  4  1  1  1  1  1  1  2  2  2  3
TYPE ASSIGNMENTS      3  3  4  4  4  1  1  1  1  1  1  2  2  2  3  3  3  4  4  4
TYPE ASSIGNMENTS      1  1  1  1  1  1  1  1  1  1  1  1  1  1  1  1  1  1  1  1
TYPE ASSIGNMENTS      1  1  1  1  1  1  1  1  1  1  1  1  1
EXPONENTS  0.1307093D+03 0.2380887D+02 0.6443608D+01 0.5033151D+01 0.1169596D+01
EXPONENTS  0.3803890D+00 0.5033151D+01 0.1169596D+01 0.3803890D+00 0.5033151D+01
EXPONENTS  0.1169596D+01 0.3803890D+00 0.5033151D+01 0.1169596D+01 0.3803890D+00
EXPONENTS  0.1307093D+03 0.2380887D+02 0.6443608D+01 0.5033151D+01 0.1169596D+01
EXPONENTS  0.3803890D+00 0.5033151D+01 0.1169596D+01 0.3803890D+00 0.5033151D+01
EXPONENTS  0.1169596D+01 0.3803890D+00 0.5033151D+01 0.1169596D+01 0.3803890D+00
EXPONENTS  0.9910617D+02 0.1805231D+02 0.4885660D+01 0.3780456D+01 0.8784966D+00
EXPONENTS  0.2857144D+00 0.3780456D+01 0.8784966D+00 0.2857144D+00 0.3780456D+01
EXPONENTS  0.8784966D+00 0.2857144D+00 0.3780456D+01 0.8784966D+00 0.2857144D+00
EXPONENTS  0.7161684D+02 0.1304510D+02 0.3530512D+01 0.2941249D+01 0.6834831D+00
EXPONENTS  0.2222899D+00 0.2941249D+01 0.6834831D+00 0.2222899D+00 0.2941249D+01
EXPONENTS  0.6834831D+00 0.2222899D+00 0.2941249D+01 0.6834831D+00 0.2222899D+00
EXPONENTS  0.7161684D+02 0.1304510D+02 0.3530512D+01 0.2941249D+01 0.6834831D+00
EXPONENTS  0.2222899D+00 0.2941249D+01 0.6834831D+00 0.2222899D+00 0.2941249D+01
EXPONENTS  0.6834831D+00 0.2222899D+00 0.2941249D+01 0.6834831D+00 0.2222899D+00
EXPONENTS  0.7161684D+02 0.1304510D+02 0.3530512D+01 0.2941249D+01 0.6834831D+00
EXPONENTS  0.2222899D+00 0.2941249D+01 0.6834831D+00 0.2222899D+00 0.2941249D+01
EXPONENTS  0.6834831D+00 0.2222899D+00 0.2941249D+01 0.6834831D+00 0.2222899D+00
EXPONENTS  0.7161684D+02 0.1304510D+02 0.3530512D+01 0.2941249D+01 0.6834831D+00
EXPONENTS  0.2222899D+00 0.2941249D+01 0.6834831D+00 0.2222899D+00 0.2941249D+01
EXPONENTS  0.6834831D+00 0.2222899D+00 0.2941249D+01 0.6834831D+00 0.2222899D+00
EXPONENTS  0.7161684D+02 0.1304510D+02 0.3530512D+01 0.2941249D+01 0.6834831D+00
EXPONENTS  0.2222899D+00 0.2941249D+01 0.6834831D+00 0.2222899D+00 0.2941249D+01
EXPONENTS  0.6834831D+00 0.2222899D+00 0.2941249D+01 0.6834831D+00 0.2222899D+00
EXPONENTS  0.3425251D+01 0.6239137D+00 0.1688554D+00 0.3425251D+01 0.6239137D+00
EXPONENTS  0.1688554D+00 0.3425251D+01 0.6239137D+00 0.1688554D+00 0.3425251D+01
EXPONENTS  0.6239137D+00 0.1688554D+00 0.3425251D+01 0.6239137D+00 0.1688554D+00
EXPONENTS  0.3425251D+01 0.6239137D+00 0.1688554D+00 0.3425251D+01 0.6239137D+00
EXPONENTS  0.1688554D+00 0.3425251D+01 0.6239137D+00 0.1688554D+00 0.3425251D+01
EXPONENTS  0.6239137D+00 0.1688554D+00 0.3425251D+01 0.6239137D+00 0.1688554D+00
EXPONENTS  0.3425251D+01 0.6239137D+00 0.1688554D+00
MO    1     MO 0.0        OCC NO =    2.0000005  ORB. ENERGY =    0.000000
  0.13068544D+00  0.12639327D+00  0.39391262D-01  0.25418886D-03 -0.33999814D-03
 -0.25660167D-03 -0.39755140D-03 -0.24999099D-03 -0.39602773D-04 -0.54378987D-03
 -0.34194966D-03 -0.54170571D-04  0.76679817D-03  0.48218326D-03  0.76385930D-04
  0.18681872D+01  0.18068293D+01  0.56310978D+00  0.15054123D-03 -0.20136105D-03
 -0.15197019D-03  0.69800960D-02  0.43892717D-02  0.69533438D-03 -0.40220636D-02
 -0.25291815D-02 -0.40066485D-03 -0.64838698D-02 -0.40772313D-02 -0.64590194D-03
  0.29019235D+01  0.28066141D+01  0.87469902D+00 -0.23457599D-02  0.31376434D-02
  0.23680263D-02 -0.15922771D-01 -0.10012666D-01 -0.15861745D-02 -0.12115912D-01
 -0.76188107D-02 -0.12069476D-02  0.58340215D-02  0.36685893D-02  0.58116618D-03
  0.16610407D-01  0.16064863D-01  0.50067160D-02 -0.14701265D-03  0.19664129D-03
  0.14840812D-03 -0.42355170D-03 -0.26634068D-03 -0.42192838D-04  0.31082757D-04
  0.19545672D-04  0.30963628D-05 -0.38424315D-03 -0.24162240D-03 -0.38277048D-04
  0.15861357D-01  0.15340414D-01  0.47809370D-02  0.98657696D-03 -0.13196264D-02
 -0.99594172D-03  0.56481648D-03  0.35517176D-03  0.56265174D-04 -0.20575654D-02
 -0.12938523D-02 -0.20496795D-03 -0.33130063D-03 -0.20833072D-03 -0.33003087D-04
  0.20158113D-02  0.19496049D-02  0.60760670D-03  0.13657186D-04 -0.18267590D-04
 -0.13786823D-04  0.16214268D-03  0.10195967D-03  0.16152125D-04 -0.17106735D-03
 -0.10757174D-03 -0.17041170D-04  0.31996469D-04  0.20120239D-04  0.31873838D-05
  0.16060107D-01  0.15532637D-01  0.48408444D-02 -0.53384451D-04  0.71406016D-04
  0.53891185D-04  0.46160859D-04  0.29027187D-04  0.45983941D-05 -0.56922436D-04
 -0.35794355D-04 -0.56704273D-05  0.15846516D-03  0.99647148D-04  0.15785782D-04
  0.83459647D+00  0.80718537D+00  0.25156442D+00 -0.13829419D-02  0.18497965D-02
  0.13960690D-02 -0.21459804D-03 -0.13494501D-03 -0.21377557D-04 -0.39671823D-03
 -0.24946707D-03 -0.39519775D-04 -0.17174992D-03 -0.10800096D-03 -0.17109166D-04
 -0.19364706D-03 -0.18728700D-03 -0.58369178D-04  0.13230712D-03  0.12796168D-03
  0.39880067D-04 -0.22742691D-04 -0.21995741D-04 -0.68551116D-05 -0.54427028D-04
 -0.52639452D-04 -0.16405418D-04  0.22319423D-04  0.21586374D-04  0.67275300D-05
 -0.10086143D-03 -0.97548788D-04 -0.30401696D-04  0.50092333D-04  0.48447123D-04
  0.15098852D-04 -0.92728844D-04 -0.89683300D-04 -0.27950367D-04 -0.15565326D-02
 -0.15054105D-02 -0.46917071D-03 -0.14370769D-02 -0.13898783D-02 -0.43316434D-03
 -0.43589999D-03 -0.42158349D-03 -0.13138916D-03
MO    2     MO 0.0        OCC NO =    2.0000005  ORB. ENERGY =    0.000000
  0.15810220D+00  0.15290957D+00  0.47655233D-01  0.20789185D-03 -0.27807214D-03
 -0.20986519D-03 -0.10096029D-02 -0.63486541D-03 -0.10057335D-03 -0.19612545D-02
 -0.12332895D-02 -0.19537377D-03  0.21394810D-03  0.13453631D-03  0.21312811D-04
  0.32258427D+01  0.31198946D+01  0.97233489D+00 -0.25768266D-03  0.34467138D-03
  0.26012863D-03  0.10955715D-01  0.68892478D-02  0.10913726D-02 -0.70505489D-02
 -0.44335744D-02 -0.70235267D-03 -0.11208668D-01 -0.70483113D-02 -0.11165709D-02
 -0.18394806D+01 -0.17790656D+01 -0.55445702D+00  0.16182048D-02 -0.21644797D-02
 -0.16335651D-02  0.89186541D-02  0.56082890D-02  0.88844720D-03  0.72548323D-02
  0.45620332D-02  0.72270271D-03 -0.29883502D-02 -0.18791548D-02 -0.29768969D-03
  0.46242423D-02  0.44723658D-02  0.13938411D-02  0.21755822D-04 -0.29100170D-04
 -0.21962332D-04 -0.20705629D-04 -0.13020255D-04 -0.20626271D-05 -0.51877535D-04
 -0.32621986D-04 -0.51678707D-05  0.13790146D-03  0.86716136D-04  0.13737293D-04
 -0.15700002D-01 -0.15184358D-01 -0.47323012D-02  0.96151036D-04 -0.12860978D-03
 -0.97063718D-04  0.18945792D-02  0.11913622D-02  0.18873179D-03  0.34493377D-02
  0.21690361D-02  0.34361176D-03 -0.15909233D-02 -0.10004153D-02 -0.15848259D-03
  0.19952072D-02  0.19296776D-02  0.60139622D-03 -0.29657905D-04  0.39669844D-04
  0.29939423D-04 -0.62877874D-04 -0.39539294D-04 -0.62636885D-05  0.81132742D-04
  0.51018446D-04  0.80821789D-05  0.20892514D-04  0.13137773D-04  0.20812440D-05
 -0.52171843D-02 -0.50458335D-02 -0.15725659D-02 -0.11327235D-04  0.15151092D-04
  0.11434755D-04  0.25897292D-04  0.16284912D-04  0.25798037D-05 -0.28992457D-04
 -0.18231235D-04 -0.28881339D-05 -0.10650592D-03 -0.66973779D-04 -0.10609772D-04
  0.99474240D+00  0.96207154D+00  0.29983568D+00 -0.15260775D-02  0.20412520D-02
  0.15405633D-02  0.14854588D-02  0.93409635D-03  0.14797656D-03 -0.16834187D-02
 -0.10585789D-02 -0.16769668D-03 -0.14217448D-02 -0.89403128D-03 -0.14162957D-03
 -0.36461336D-04 -0.35263817D-04 -0.10990191D-04  0.47626056D-04  0.46061848D-04
  0.14355466D-04  0.11772450D-04  0.11385801D-04  0.35484569D-05 -0.62196578D-04
 -0.60153822D-04 -0.18747319D-04 -0.11537413D-04 -0.11158484D-04 -0.34776120D-05
 -0.87901845D-04 -0.85014837D-04 -0.26495411D-04 -0.27853297D-04 -0.26938496D-04
 -0.83955527D-05  0.45116890D-04  0.43635092D-04  0.13599152D-04  0.73503234D-03
  0.71089128D-03  0.22155376D-03  0.90616920D-03  0.87640740D-03  0.27313791D-03
 -0.35518667D-03 -0.34352108D-03 -0.10706052D-03
MO    3     MO 0.0        OCC NO =    2.0000003  ORB. ENERGY =    0.000000
  0.41811262D+01  0.40438032D+01  0.12602768D+01 -0.60697641D-03  0.81187998D-03
  0.61273793D-03 -0.12321204D-01 -0.77479038D-02 -0.12273981D-02  0.11471776D-01
  0.72137609D-02  0.11427809D-02  0.13575551D-01  0.85366709D-02  0.13523521D-02
 -0.52240961D+00 -0.50525183D+00 -0.15746493D+00 -0.21485290D-04  0.28738311D-04
  0.21689232D-04 -0.18853849D-02 -0.11855806D-02 -0.18781589D-03  0.12324115D-02
  0.77497340D-03  0.12276881D-03  0.18511170D-02  0.11640320D-02  0.18440223D-03
 -0.62893306D-01 -0.60827667D-01 -0.18957327D-01  0.84156427D-04 -0.11256602D-03
 -0.84955254D-04  0.23708251D-03  0.14908384D-03  0.23617385D-04  0.18138169D-03
  0.11405767D-03  0.18068652D-04 -0.74143423D-04 -0.46623374D-04 -0.73859257D-05
  0.14196394D-01  0.13730134D-01  0.42790831D-02 -0.19963633D-04  0.26702971D-04
  0.20153131D-04 -0.10282087D-03 -0.64656522D-04 -0.10242679D-04  0.89645364D-04
  0.56371410D-04  0.89301785D-05  0.38009619D-04  0.23901468D-04  0.37863942D-05
 -0.29331422D-02 -0.28368074D-02 -0.88410896D-03  0.99456651D-04 -0.13303131D-03
 -0.10040071D-03  0.43634076D-03  0.27438278D-03  0.43466842D-04  0.13095685D-03
  0.82349182D-04  0.13045494D-04 -0.51615887D-03 -0.32457455D-03 -0.51418061D-04
  0.94658004D-01  0.91549100D-01  0.28531856D-01 -0.31014407D-03  0.41484275D-03
  0.31308801D-03  0.94248345D-05  0.59265889D-05  0.93887125D-06 -0.18703496D-03
 -0.11761260D-03 -0.18631812D-04  0.11851538D-03  0.74525650D-04  0.11806115D-04
 -0.33564519D-02 -0.32462142D-02 -0.10117032D-02  0.16186358D-04 -0.21650562D-04
 -0.16340002D-04  0.39902685D-04  0.25091879D-04  0.39749753D-05  0.95489703D-05
  0.60046488D-05  0.95123725D-06  0.11287847D-04  0.70981012D-05  0.11244585D-05
  0.33870440D+00  0.32758015D+00  0.10209242D+00 -0.32622292D-03  0.43634951D-03
  0.32931948D-03 -0.18312087D-02 -0.11515132D-02 -0.18241904D-03  0.36654050D-02
  0.23049050D-02  0.36513568D-03  0.23529239D-02  0.14795817D-02  0.23439060D-03
 -0.26656023D-04 -0.25780545D-04 -0.80346698D-05 -0.79982028D-04 -0.77355136D-04
 -0.24108217D-04 -0.76856382D-04 -0.74332146D-04 -0.23166083D-04 -0.40563023D-03
 -0.39230790D-03 -0.12226524D-03 -0.95384599D-04 -0.92251831D-04 -0.28750866D-04
 -0.83858020D-05 -0.81103826D-05 -0.25276520D-05  0.29510161D-05  0.28540943D-05
  0.88949652D-06  0.68380065D-05  0.66134222D-05  0.20611148D-05  0.53014775D-04
  0.51273582D-04  0.15979736D-04  0.30020958D-04  0.29034964D-04  0.90489300D-05
 -0.14005796D-02 -0.13545797D-02 -0.42216331D-03
MO    4     MO 0.0        OCC NO =    2.0000002  ORB. ENERGY =    0.000000
 -0.71048965D+00 -0.68715466D+00 -0.21415609D+00  0.13157702D-02 -0.17599489D-02
 -0.13282597D-02  0.15399948D-02  0.96839005D-03  0.15340925D-03 -0.54521550D-02
 -0.34284614D-02 -0.54312588D-03 -0.24376958D-02 -0.15328885D-02 -0.24283530D-03
 -0.19522599D+01 -0.18881408D+01 -0.58845101D+00  0.79792079D-03 -0.10672835D-02
 -0.80549479D-03 -0.57655316D-02 -0.36255210D-02 -0.57434344D-03  0.35421541D-02
  0.22274015D-02  0.35285783D-03  0.57503236D-02  0.36159578D-02  0.57282846D-03
 -0.23718083D+00 -0.22939098D+00 -0.71491148D-01  0.15847643D-03 -0.21197503D-03
 -0.15998072D-03  0.70293258D-03  0.44202287D-03  0.70023849D-04 -0.34246117D-03
 -0.21534877D-03 -0.34114864D-04 -0.36072385D-04 -0.22683284D-04 -0.35934133D-05
 -0.15950776D-01 -0.15426896D-01 -0.48078897D-02 -0.11505741D-03  0.15389859D-03
  0.11614956D-03 -0.57567263D-03 -0.36199839D-03 -0.57346628D-04  0.13656343D-03
  0.85874750D-04  0.13604003D-04 -0.26581185D-03 -0.16714962D-03 -0.26479309D-04
 -0.43066059D+00 -0.41651617D+00 -0.12980990D+00  0.20340293D-02 -0.27206785D-02
 -0.20533367D-02  0.32602535D-02  0.20501349D-02  0.32477581D-03  0.21472657D-02
  0.13502583D-02  0.21390360D-03 -0.25214246D-02 -0.15855395D-02 -0.25117609D-03
 -0.14762016D-01 -0.14277179D-01 -0.44495731D-02  0.17089129D-04 -0.22858091D-04
 -0.17251342D-04 -0.27513737D-04 -0.17301376D-04 -0.27408286D-05  0.74233327D-05
  0.46679908D-05  0.73948817D-06  0.52809674D-05  0.33208140D-05  0.52607273D-06
  0.11715959D-01  0.11331165D-01  0.35314293D-02 -0.74939969D-04  0.10023826D-03
  0.75651312D-04  0.84823317D-04  0.53339178D-04  0.84498219D-05 -0.76329892D-04
 -0.47998285D-04 -0.76037347D-05  0.55815593D-04  0.35098342D-04  0.55601671D-05
  0.22928318D+01  0.22175271D+01  0.69110633D+00 -0.57106291D-02  0.76384277D-02
  0.57648353D-02 -0.32210239D-02 -0.20254662D-02 -0.32086788D-03  0.67547936D-03
  0.42475955D-03  0.67289049D-04  0.30099752D-02  0.18927532D-02  0.29984390D-03
 -0.94693724D-04 -0.91583647D-04 -0.28542623D-04  0.36556339D-03  0.35355700D-03
  0.11018827D-03  0.12579630D-04  0.12166471D-04  0.37917575D-05 -0.44253612D-04
 -0.42800167D-04 -0.13338942D-04  0.20972740D-04  0.20283921D-04  0.63216123D-05
 -0.18426617D-03 -0.17821422D-03 -0.55541588D-04 -0.33507724D-04 -0.32407212D-04
 -0.10099913D-04 -0.27162518D-05 -0.26270404D-05 -0.81873376D-06  0.16824445D-03
  0.16271871D-03  0.50712314D-04  0.10042565D-03  0.97127316D-04  0.30270342D-04
 -0.13358954D-03 -0.12920198D-03 -0.40266614D-04
MO    5     MO 0.0        OCC NO =    2.0000001  ORB. ENERGY =    0.000000
 -0.11086092D+00 -0.10721985D+00 -0.33415745D-01  0.14178702D-03 -0.18965160D-03
 -0.14313289D-03  0.11982130D-03  0.75346852D-04  0.11936207D-04 -0.15302993D-03
 -0.96229325D-04 -0.15244342D-04 -0.42862402D-03 -0.26953028D-03 -0.42698125D-04
 -0.12205964D+00 -0.11805077D+00 -0.36791269D-01  0.91093188D-04 -0.12184450D-03
 -0.91957860D-04  0.44036625D-04  0.27691412D-04  0.43867849D-05  0.60864442D-03
  0.38273194D-03  0.60631170D-04  0.81467883D-04  0.51229191D-04  0.81155646D-05
 -0.40994829D-01 -0.39648414D-01 -0.12356679D-01  0.33399203D-03 -0.44674132D-03
 -0.33716234D-03 -0.21874335D-03 -0.13755169D-03 -0.21790498D-04  0.12075766D-02
  0.75935655D-03  0.12029484D-03 -0.19849720D-03 -0.12482037D-03 -0.19773643D-04
  0.21178989D+01  0.20483396D+01  0.63837799D+00 -0.47063369D-02  0.62951058D-02
  0.47510102D-02  0.57255558D-03  0.36003832D-03  0.57036118D-04  0.70411357D-03
  0.44276551D-03  0.70141496D-04 -0.61466355D-03 -0.38651694D-03 -0.61230776D-04
  0.88817630D+00  0.85900545D+00  0.26771448D+00 -0.15675453D-02  0.20967184D-02
  0.15824247D-02 -0.24337761D-02 -0.15304237D-02 -0.24244483D-03  0.43209624D-03
  0.27171371D-03  0.43044017D-04 -0.10917856D-02 -0.68654406D-03 -0.10876011D-03
  0.97289303D+00  0.94093979D+00  0.29324983D+00 -0.18818611D-02  0.25171412D-02
  0.18997240D-02  0.10156761D-02  0.63868436D-03  0.10117833D-03 -0.25352819D-02
 -0.15942533D-02 -0.25255651D-03 -0.42644067D-03 -0.26815734D-03 -0.42480627D-04
  0.97202869D+00  0.94010383D+00  0.29298930D+00 -0.18827290D-02  0.25183022D-02
  0.19006002D-02  0.26089681D-03  0.16405892D-03  0.25989689D-04  0.80426005D-03
  0.50574030D-03  0.80117760D-04  0.26816660D-02  0.16863035D-02  0.26713881D-03
  0.12626838D+00  0.12212128D+00  0.38059869D-01 -0.27497474D-04  0.36780093D-04
  0.27758485D-04 -0.10325910D-02 -0.64932092D-03 -0.10286334D-03 -0.59494744D-03
 -0.37411891D-03 -0.59266721D-04  0.81073207D-03  0.50981008D-03  0.80762482D-04
 -0.17373549D-02 -0.16802941D-02 -0.52367426D-03 -0.75514149D-03 -0.73033997D-03
 -0.22761507D-03 -0.77498415D-03 -0.74953093D-03 -0.23359605D-03 -0.84203472D-03
 -0.81437932D-03 -0.25380646D-03 -0.77606380D-03 -0.75057512D-03 -0.23392148D-03
 -0.84638017D-03 -0.81858205D-03 -0.25511627D-03 -0.76824388D-03 -0.74301203D-03
 -0.23156440D-03 -0.78580591D-03 -0.75999727D-03 -0.23685795D-03 -0.66339956D-04
 -0.64161117D-04 -0.19996218D-04 -0.62925016D-04 -0.60858336D-04 -0.18966885D-04
  0.58838253D-05  0.56905797D-05  0.17735051D-05
MO    6     MO 0.0        OCC NO =    2.0000000  ORB. ENERGY =    0.000000
 -0.55145679D-01 -0.53334500D-01 -0.16622034D-01  0.12337072D-03 -0.16501831D-03
 -0.12454178D-03  0.12038835D-03  0.75703427D-04  0.11992695D-04 -0.23935169D-03
 -0.15051077D-03 -0.23843434D-04 -0.21373152D-03 -0.13440012D-03 -0.21291236D-04
 -0.27572558D+00 -0.26666978D+00 -0.83109321D-01  0.16452534D-03 -0.22006594D-03
 -0.16608705D-03 -0.64559352D-05 -0.40596653D-05 -0.64311919D-06  0.14258778D-02
  0.89663022D-03  0.14204129D-03  0.99020180D-04  0.62266547D-04  0.98640671D-05
 -0.48818458D-01 -0.47215087D-01 -0.14714880D-01  0.83070429D-03 -0.11111341D-02
 -0.83858948D-03 -0.61309206D-03 -0.38552874D-03 -0.61074229D-04  0.35729282D-02
  0.22467531D-02  0.35592344D-03 -0.23852123D-03 -0.14998855D-03 -0.23760707D-04
 -0.24311357D+00 -0.23512886D+00 -0.73279395D-01  0.91586269D-03 -0.12250403D-02
 -0.92455622D-03  0.34631399D-02  0.21777153D-02  0.34498669D-03 -0.95574617D-03
 -0.60099884D-03 -0.95208314D-04  0.21295916D-02  0.13391444D-02  0.21214297D-03
  0.23570524D+01  0.22796385D+01  0.71046374D+00 -0.60322373D-02  0.80686047D-02
  0.60894963D-02  0.38817747D-03  0.24409641D-03  0.38668972D-04  0.22203540D-03
  0.13962182D-03  0.22118442D-04 -0.15899827D-03 -0.99982378D-04 -0.15838888D-04
 -0.77311613D+00 -0.74772427D+00 -0.23303299D+00  0.20031090D-02 -0.26793202D-02
 -0.20221229D-02 -0.38922712D-04 -0.24475646D-04 -0.38773535D-05  0.28563349D-03
  0.17961400D-03  0.28453876D-04  0.19857524D-03  0.12486944D-03  0.19781417D-04
 -0.90948529D+00 -0.87961458D+00 -0.27413744D+00  0.23770241D-02 -0.31794617D-02
 -0.23995872D-02  0.90153575D-04  0.56690987D-04  0.89808048D-05 -0.96037342D-04
 -0.60390858D-04 -0.95669265D-05 -0.18008561D-03 -0.11324266D-03 -0.17939540D-04
  0.34063260D+00  0.32944502D+00  0.10267362D+00 -0.86624762D-04  0.11586762D-03
  0.87447019D-04 -0.26006034D-02 -0.16353292D-02 -0.25906363D-03 -0.13910755D-02
 -0.87474560D-03 -0.13857440D-03  0.21848833D-02  0.13739132D-02  0.21765094D-03
  0.19797163D-03  0.19146954D-03  0.59672692D-04 -0.19713797D-02 -0.19066326D-02
 -0.59421410D-03  0.61647222D-03  0.59622509D-03  0.18581732D-03  0.60541353D-03
  0.58552961D-03  0.18248400D-03  0.58942334D-03  0.57006459D-03  0.17766423D-03
  0.70990586D-03  0.68659004D-03  0.21398013D-03  0.69323705D-03  0.67046870D-03
  0.20895581D-03  0.70922309D-03  0.68592969D-03  0.21377433D-03 -0.18983688D-03
 -0.18360196D-03 -0.57220712D-04 -0.12674540D-03 -0.12258263D-03 -0.38203652D-04
 -0.81088059D-04 -0.78424841D-04 -0.24441597D-04
MO    7     MO 0.0        OCC NO =    2.0000000  ORB. ENERGY =    0.000000
  0.11090983D+00  0.10726716D+00  0.33430489D-01 -0.13953870D-03  0.18664428D-03
  0.14086322D-03 -0.11855022D-03 -0.74547562D-04 -0.11809586D-04  0.18364647D-03
  0.11548183D-03  0.18294261D-04  0.25356863D-03  0.15945076D-03  0.25259679D-04
 -0.10273528D-01 -0.99361095D-02 -0.30966513D-02  0.15148850D-06 -0.20262810D-06
 -0.15292645D-06  0.41314651D-04  0.25979761D-04  0.41156306D-05 -0.39402683D-06
 -0.24777464D-06 -0.39251666D-07 -0.33468508D-05 -0.21045896D-05 -0.33340235D-06
 -0.15905058D-01 -0.15382679D-01 -0.47941093D-02  0.40930746D-04 -0.54748180D-04
 -0.41319268D-04  0.10323692D-03  0.64918143D-04  0.10284125D-04  0.13029668D-03
  0.81934051D-04  0.12979730D-04 -0.43281307D-04 -0.27216447D-04 -0.43115425D-05
 -0.69362762D-03 -0.67084644D-03 -0.20907353D-03  0.11401383D-04 -0.15250271D-04
 -0.11509607D-04  0.80744199D-03  0.50774119D-03  0.80434735D-04 -0.28955321D-02
 -0.18207883D-02 -0.28844346D-03 -0.25463295D-02 -0.16012003D-02 -0.25365703D-03
  0.84372388D-01  0.81601300D-01  0.25431561D-01 -0.22485692D-03  0.30076429D-03
  0.22699130D-03 -0.19347489D-04 -0.12166220D-04 -0.19273337D-05 -0.77119283D-04
 -0.48494675D-04 -0.76823712D-05 -0.68863719D-04 -0.43303354D-04 -0.68599789D-05
 -0.19284774D+01 -0.18651394D+01 -0.58128249D+00  0.52327992D-02 -0.69992917D-02
 -0.52824699D-02 -0.70747680D-05 -0.44488040D-05 -0.70476530D-06 -0.95566949D-04
 -0.60095062D-04 -0.95200674D-05 -0.79118248D-04 -0.49751677D-04 -0.78815016D-05
  0.18583849D+01  0.17973489D+01  0.56015515D+00 -0.50455452D-02  0.67488244D-02
  0.50934384D-02  0.11264767D-03  0.70835878D-04  0.11221593D-04 -0.10539052D-03
 -0.66272384D-04 -0.10498659D-04 -0.38331589D-04 -0.24103932D-04 -0.38184678D-05
  0.33837539D-02  0.32726195D-02  0.10199325D-02  0.42497964D-04 -0.56844460D-04
 -0.42901362D-04 -0.97850999D-04 -0.61531334D-04 -0.97475971D-05 -0.39992344D-04
 -0.25148259D-04 -0.39839067D-05  0.81896817D-04  0.51498916D-04  0.81582935D-05
 -0.32208859D-05 -0.31151006D-05 -0.97084079D-06 -0.66506878D-04 -0.64322557D-04
 -0.20046532D-04  0.15288554D-02  0.14786424D-02  0.46082824D-03  0.15431834D-02
  0.14924998D-02  0.46514700D-03  0.15195940D-02  0.14696852D-02  0.45803668D-03
 -0.14788237D-02 -0.14302539D-02 -0.44574768D-03 -0.14673629D-02 -0.14191695D-02
 -0.44229315D-03 -0.14754806D-02 -0.14270206D-02 -0.44474000D-03  0.28050886D-05
  0.27129595D-05  0.84551099D-06  0.20611700D-04  0.19934739D-04  0.62127873D-05
 -0.52477259D-04 -0.50753720D-04 -0.15817718D-04
MO    8     MO 0.0        OCC NO =    2.0000000  ORB. ENERGY =    0.000000
  0.91024054D-01  0.88034502D-01  0.27436509D-01 -0.14914696D-03  0.19949611D-03
  0.15056269D-03 -0.11275547D-03 -0.70903668D-04 -0.11232332D-04  0.26615224D-03
  0.16736367D-03  0.26513217D-04  0.23460821D-03  0.14752794D-03  0.23370904D-04
  0.75094705D-01  0.72628329D-01  0.22635078D-01 -0.37431835D-04  0.50068103D-04
  0.37787144D-04 -0.82890885D-05 -0.52124013D-05 -0.82573194D-06 -0.46329828D-03
 -0.29133439D-03 -0.46152263D-04 -0.13488685D-04 -0.84820470D-05 -0.13436988D-05
  0.20081334D-01  0.19421792D-01  0.60529242D-02 -0.31810162D-03  0.42548661D-03
  0.32112109D-03  0.19527280D-03  0.12279278D-03  0.19452439D-04 -0.13466352D-02
 -0.84680036D-03 -0.13414740D-03  0.13303214D-03  0.83654181D-04  0.13252228D-04
  0.16245414D+01  0.15711857D+01  0.48966996D+00 -0.55186199D-02  0.73815999D-02
  0.55710036D-02 -0.35511490D-03 -0.22330578D-03 -0.35375387D-04 -0.92904556D-03
 -0.58420878D-03 -0.92548486D-04  0.95047973D-03  0.59768716D-03  0.94683688D-04
 -0.80646110D+00 -0.77997406D+00 -0.24308385D+00  0.25837933D-02 -0.34560323D-02
 -0.26083191D-02 -0.19768852D-02 -0.12431184D-02 -0.19693085D-03  0.10747256D-03
  0.67581627D-04  0.10706065D-04 -0.66421118D-03 -0.41767381D-03 -0.66166549D-04
 -0.13831627D+01 -0.13377348D+01 -0.41691350D+00  0.43498832D-02 -0.58183203D-02
 -0.43911731D-02  0.77019074D-03  0.48431661D-03  0.76723887D-04 -0.21490473D-02
 -0.13513786D-02 -0.21408108D-03 -0.28837011D-03 -0.18133487D-03 -0.28726489D-04
 -0.13998108D+01 -0.13538361D+01 -0.42193158D+00  0.43935847D-02 -0.58767745D-02
 -0.44352894D-02  0.10238224D-03  0.64380697D-04  0.10198984D-04  0.56534035D-03
  0.35550119D-03  0.56317361D-04  0.21375940D-02  0.13441765D-02  0.21294014D-03
 -0.10491613D+00 -0.10147031D+00 -0.31623865D-01  0.24351949D-04 -0.32572699D-04
 -0.24583102D-04  0.91715163D-03  0.57672956D-03  0.91363651D-04  0.61011879D-03
  0.38365907D-03  0.60778042D-04 -0.66299796D-03 -0.41691091D-03 -0.66045692D-04
 -0.13327303D-02 -0.12889587D-02 -0.40171213D-03  0.72787351D-03  0.70396757D-03
  0.21939594D-03  0.11256448D-02  0.10886746D-02  0.33929233D-03  0.10893874D-02
  0.10536081D-02  0.32836363D-03  0.11361894D-02  0.10988729D-02  0.34247069D-03
  0.11061544D-02  0.10698243D-02  0.33341752D-03  0.11412999D-02  0.11038156D-02
  0.34401111D-03  0.11457833D-02  0.11081518D-02  0.34536250D-03  0.67432560D-04
  0.65217837D-04  0.20325551D-04  0.15638320D-04  0.15124703D-04  0.47137092D-05
 -0.15419661D-04 -0.14913225D-04 -0.46478008D-05
MO    9     MO 0.0        OCC NO =    1.9995818  ORB. ENERGY =    0.000000
  0.72415741D+00  0.70037352D+00  0.21827583D+00  0.17573674D+00 -0.23506209D+00
 -0.17740487D+00 -0.17932108D+00 -0.11276190D+00 -0.17863380D-01  0.16815623D+00
  0.10574115D+00  0.16751175D-01  0.20049240D+00  0.12607500D+00  0.19972399D-01
 -0.66005201D+00 -0.63837357D+00 -0.19895316D+00 -0.15629055D+00  0.20905123D+00
  0.15777408D+00 -0.93453074D-01 -0.58765801D-01 -0.93094902D-02  0.11728949D+00
  0.73754779D-01  0.11683996D-01  0.10044109D+00  0.63160051D-01  0.10005613D-01
 -0.11503423D-03 -0.11125610D-03 -0.34673668D-04  0.63929827D-03 -0.85511308D-03
 -0.64536660D-03 -0.35544079D-02 -0.22351070D-02 -0.35407851D-03 -0.55623977D-02
 -0.34977849D-02 -0.55410790D-03  0.28432622D-02  0.17879196D-02  0.28323650D-03
  0.17736284D-02  0.17153761D-02  0.53460782D-03  0.12655615D-03 -0.16927908D-03
 -0.12775744D-03  0.17183562D-02  0.10805485D-02  0.17117704D-03  0.40692334D-03
  0.25588432D-03  0.40536375D-04  0.30223274D-03  0.19005206D-03  0.30107439D-04
  0.31975725D-02  0.30925529D-02  0.96381367D-03 -0.51449876D-03  0.68818366D-03
  0.51938247D-03 -0.56122019D-02 -0.35291032D-02 -0.55906924D-03 -0.12803660D-02
 -0.80512852D-03 -0.12754588D-03  0.50392454D-02  0.31688127D-02  0.50199317D-03
  0.29660026D-02  0.28685886D-02  0.89401376D-03  0.12107667D-03 -0.16194983D-03
 -0.12222595D-03  0.32732087D-02  0.20582814D-02  0.32606636D-03 -0.28374720D-03
 -0.17842786D-03 -0.28265970D-04 -0.10169090D-03 -0.63945969D-04 -0.10130116D-04
  0.61882748D-04  0.59850299D-04  0.18652724D-04  0.76103928D-04 -0.10179515D-03
 -0.76826320D-04 -0.40564482D-03 -0.25508035D-03 -0.40409013D-04  0.41297771D-03
  0.25969146D-03  0.41139491D-04  0.70565333D-03  0.44373375D-03  0.70294881D-04
 -0.38481054D-01 -0.37217200D-01 -0.11598976D-01 -0.17368972D-02  0.23232403D-02
  0.17533841D-02 -0.31153624D-01 -0.19590235D-01 -0.31034223D-02  0.22106544D-01
  0.13901188D-01  0.22021818D-02  0.33130982D-01  0.20833650D-01  0.33004003D-02
  0.50869766D-03  0.49199023D-03  0.15333186D-03 -0.28708448D-02 -0.27765561D-02
 -0.86533127D-03 -0.12599742D-04 -0.12185921D-04 -0.37978194D-05 -0.53573493D-02
 -0.51813950D-02 -0.16148145D-02 -0.24867422D-03 -0.24050688D-03 -0.74955491D-04
  0.49967505D-03  0.48326395D-03  0.15061227D-03 -0.11762824D-03 -0.11376491D-03
 -0.35455554D-04  0.23697602D-03  0.22919289D-03  0.71429413D-04  0.33854797D-02
  0.32742886D-02  0.10204527D-02  0.37109498D-05  0.35890691D-05  0.11185561D-05
  0.24921850D-02  0.24103328D-02  0.75119546D-03
MO   10     MO 0.0        OCC NO =    1.9995548  ORB. ENERGY =    0.000000
 -0.65073765D+00 -0.62936512D+00 -0.19614562D+00 -0.15375810D+00  0.20566387D+00
  0.15521759D+00  0.13064780D+00  0.82154840D-01  0.13014707D-01 -0.10324158D+00
 -0.64921079D-01 -0.10284590D-01 -0.14286674D+00 -0.89838441D-01 -0.14231918D-01
 -0.74156136D+00 -0.71720586D+00 -0.22352174D+00 -0.17748807D+00  0.23740463D+00
  0.17917282D+00 -0.12110117D+00 -0.76151665D-01 -0.12063703D-01  0.12293416D-01
  0.77304302D-02  0.12246300D-02  0.10892851D+00  0.68497170D-01  0.10851103D-01
 -0.19887632D-01 -0.19234452D-01 -0.59945386D-02 -0.53142161D-02  0.71081934D-02
  0.53646596D-02  0.15854000D-01  0.99694206D-02  0.15793237D-02  0.68667886D-02
  0.43180209D-02  0.68404706D-03 -0.46311714D-02 -0.29122049D-02 -0.46134218D-03
 -0.19311505D-02 -0.18677246D-02 -0.58208819D-03  0.11496416D-03 -0.15377386D-03
 -0.11605542D-03  0.44188223D-02  0.27786740D-02  0.44018865D-03  0.19887135D-02
  0.12505564D-02  0.19810915D-03  0.56191289D-03  0.35334591D-03  0.55975928D-04
 -0.25424218D-01 -0.24589197D-01 -0.76633787D-02 -0.39119035D-02  0.52324869D-02
  0.39490359D-02 -0.14251772D-01 -0.89618965D-02 -0.14197150D-02 -0.15986261D-01
 -0.10052590D-01 -0.15924992D-02  0.12896252D-01  0.81095091D-02  0.12846825D-02
 -0.30297313D-02 -0.29302242D-02 -0.91322290D-03 -0.16586571D-03  0.22185879D-03
  0.16744014D-03 -0.32624390D-02 -0.20515092D-02 -0.32499352D-03 -0.92782422D-03
 -0.58344077D-03 -0.92426820D-04 -0.96064797D-04 -0.60408122D-04 -0.95696615D-05
 -0.15703965D-02 -0.15188191D-02 -0.47334957D-03 -0.12959113D-03  0.17333860D-03
  0.13082123D-03 -0.21628271D-02 -0.13600437D-02 -0.21545378D-03 -0.32895822D-03