 opt alanine m062x
GAUSSIAN             24 MOL ORBITALS    111 PRIMITIVES       13 NUCLEI
  O    1    (CENTRE  1)   2.97890299  1.86938397 -0.40301592  CHARGE =  8.0
  O    2    (CENTRE  2)   2.39432705 -2.34251167  0.67934736  CHARGE =  8.0
  N    3    (CENTRE  3)  -2.91756451 -2.13505398 -0.28888277  CHARGE =  7.0
  C    4    (CENTRE  4)  -1.33104391  0.16446660 -0.78898402  CHARGE =  6.0
  C    5    (CENTRE  5)  -2.39561761  2.46640788  0.66604862  CHARGE =  6.0
  C    6    (CENTRE  6)   1.50682260 -0.31177016 -0.07313760  CHARGE =  6.0
  H    7    (CENTRE  7)  -1.39846225  0.56056355 -2.83707586  CHARGE =  1.0
  H    8    (CENTRE  8)  -1.24311463  4.14258931  0.28108735  CHARGE =  1.0
  H    9    (CENTRE  9)  -4.34584961  2.82118445  0.07065417  CHARGE =  1.0
  H   10    (CENTRE 10)  -2.38038121  2.09890914  2.70447782  CHARGE =  1.0
  H   11    (CENTRE 11)  -2.76474802 -2.42906647  1.67704578  CHARGE =  1.0
  H   12    (CENTRE 12)  -1.84638727 -3.65209674 -1.01640108  CHARGE =  1.0
  H   13    (CENTRE 13)   4.73508775  1.27369024  0.10817759  CHARGE =  1.0
CENTRE ASSIGNMENTS    1  1  1  1  1  1  1  1  1  1  1  1  1  1  1  2  2  2  2  2
CENTRE ASSIGNMENTS    2  2  2  2  2  2  2  2  2  2  3  3  3  3  3  3  3  3  3  3
CENTRE ASSIGNMENTS    3  3  3  3  3  4  4  4  4  4  4  4  4  4  4  4  4  4  4  4
CENTRE ASSIGNMENTS    5  5  5  5  5  5  5  5  5  5  5  5  5  5  5  6  6  6  6  6
CENTRE ASSIGNMENTS    6  6  6  6  6  6  6  6  6  6  7  7  7  8  8  8  9  9  9 10
CENTRE ASSIGNMENTS   10 10 11 11 11 12 12 12 13 13 13
TYPE ASSIGNMENTS      1  1  1  1  1  1  2  2  2  3  3  3  4  4  4  1  1  1  1  1
TYPE ASSIGNMENTS      1  2  2  2  3  3  3  4  4  4  1  1  1  1  1  1  2  2  2  3
TYPE ASSIGNMENTS      3  3  4  4  4  1  1  1  1  1  1  2  2  2  3  3  3  4  4  4
TYPE ASSIGNMENTS      1  1  1  1  1  1  2  2  2  3  3  3  4  4  4  1  1  1  1  1
TYPE ASSIGNMENTS      1  2  2  2  3  3  3  4  4  4  1  1  1  1  1  1  1  1  1  1
TYPE ASSIGNMENTS      1  1  1  1  1  1  1  1  1  1  1
EXPONENTS  0.1307093D+03 0.2380887D+02 0.6443608D+01 0.5033151D+01 0.1169596D+01
EXPONENTS  0.3803890D+00 0.5033151D+01 0.1169596D+01 0.3803890D+00 0.5033151D+01
EXPONENTS  0.1169596D+01 0.3803890D+00 0.5033151D+01 0.1169596D+01 0.3803890D+00
EXPONENTS  0.1307093D+03 0.2380887D+02 0.6443608D+01 0.5033151D+01 0.1169596D+01
EXPONENTS  0.3803890D+00 0.5033151D+01 0.1169596D+01 0.3803890D+00 0.5033151D+01
EXPONENTS  0.1169596D+01 0.3803890D+00 0.5033151D+01 0.1169596D+01 0.3803890D+00
EXPONENTS  0.9910617D+02 0.1805231D+02 0.4885660D+01 0.3780456D+01 0.8784966D+00
EXPONENTS  0.2857144D+00 0.3780456D+01 0.8784966D+00 0.2857144D+00 0.3780456D+01
EXPONENTS  0.8784966D+00 0.2857144D+00 0.3780456D+01 0.8784966D+00 0.2857144D+00
EXPONENTS  0.7161684D+02 0.1304510D+02 0.3530512D+01 0.2941249D+01 0.6834831D+00
EXPONENTS  0.2222899D+00 0.2941249D+01 0.6834831D+00 0.2222899D+00 0.2941249D+01
EXPONENTS  0.6834831D+00 0.2222899D+00 0.2941249D+01 0.6834831D+00 0.2222899D+00
EXPONENTS  0.7161684D+02 0.1304510D+02 0.3530512D+01 0.2941249D+01 0.6834831D+00
EXPONENTS  0.2222899D+00 0.2941249D+01 0.6834831D+00 0.2222899D+00 0.2941249D+01
EXPONENTS  0.6834831D+00 0.2222899D+00 0.2941249D+01 0.6834831D+00 0.2222899D+00
EXPONENTS  0.7161684D+02 0.1304510D+02 0.3530512D+01 0.2941249D+01 0.6834831D+00
EXPONENTS  0.2222899D+00 0.2941249D+01 0.6834831D+00 0.2222899D+00 0.2941249D+01
EXPONENTS  0.6834831D+00 0.2222899D+00 0.2941249D+01 0.6834831D+00 0.2222899D+00
EXPONENTS  0.3425251D+01 0.6239137D+00 0.1688554D+00 0.3425251D+01 0.6239137D+00
EXPONENTS  0.1688554D+00 0.3425251D+01 0.6239137D+00 0.1688554D+00 0.3425251D+01
EXPONENTS  0.6239137D+00 0.1688554D+00 0.3425251D+01 0.6239137D+00 0.1688554D+00
EXPONENTS  0.3425251D+01 0.6239137D+00 0.1688554D+00 0.3425251D+01 0.6239137D+00
EXPONENTS  0.1688554D+00
MO    1     MO 0.0        OCC NO =    2.0000000  ORB. ENERGY =  -19.430138
  0.42264885D+01  0.40876757D+01  0.12739500D+01 -0.63855589D-02  0.85412009D-02
  0.64461717D-02  0.16238251D-02  0.10211048D-02  0.16176015D-03 -0.64853931D-02
 -0.40781892D-02 -0.64605369D-03  0.21571932D-02  0.13565009D-02  0.21489254D-03
  0.37927489D-02  0.36681816D-02  0.11432120D-02 -0.53872611D-04  0.72058969D-04
  0.54383979D-04  0.89024082D-03  0.55980732D-03  0.88682885D-04  0.56086340D-03
  0.35268596D-03  0.55871381D-04  0.14943848D-04  0.93970928D-05  0.14886574D-05
  0.70123140D-05  0.67820048D-05  0.21136547D-05 -0.19070653D-05  0.25508539D-05
  0.19251675D-05 -0.68003377D-04 -0.42762348D-04 -0.67742744D-05  0.45478737D-05
  0.28598250D-05  0.45304433D-06 -0.21856725D-04 -0.13744096D-04 -0.21772956D-05
 -0.53631390D-04 -0.51869945D-04 -0.16165596D-04 -0.44231280D-04  0.59162910D-04
  0.44651131D-04  0.20058133D-03  0.12613092D-03  0.19981257D-04  0.17128072D-03
  0.10770591D-03  0.17062426D-04 -0.16807643D-04 -0.10569097D-04 -0.16743225D-05
 -0.33573812D-04 -0.32471129D-04 -0.10119833D-04 -0.16074686D-04  0.21501191D-04
  0.16227269D-04  0.23398245D-04  0.14713444D-04  0.23308568D-05  0.66299929D-04
  0.41691175D-04  0.66045825D-05  0.24332993D-04  0.15301239D-04  0.24239733D-05
  0.14606038D-02  0.14126324D-02  0.44025581D-03  0.73081672D-03 -0.97752640D-03
 -0.73775375D-03 -0.21792228D-02 -0.13703538D-02 -0.21708706D-03 -0.34193441D-02
 -0.21501753D-02 -0.34062389D-03  0.54347882D-03  0.34175406D-03  0.54139586D-04
 -0.11840730D-04 -0.11451839D-04 -0.35690379D-05 -0.70877254D-04 -0.68549394D-04
 -0.21363852D-04 -0.99009684D-06 -0.95757856D-06 -0.29843541D-06 -0.60014076D-06
 -0.58043001D-06 -0.18089468D-06 -0.69922216D-05 -0.67625723D-05 -0.21075984D-05
 -0.15859598D-04 -0.15338712D-04 -0.47804067D-05 -0.16152669D-02 -0.15622159D-02
 -0.48687444D-03
MO    2     MO 0.0        OCC NO =    2.0000000  ORB. ENERGY =  -19.377497
 -0.41157463D-02 -0.39805706D-02 -0.12405700D-02 -0.61047593D-04  0.81656088D-04
  0.61627068D-04  0.56825436D-03  0.35733359D-03  0.56607644D-04 -0.61030818D-03
 -0.38377816D-03 -0.60796909D-04  0.28630190D-03  0.18003431D-03  0.28520460D-04
  0.42267510D+01  0.40879295D+01  0.12740291D+01 -0.64171810D-02  0.85834980D-02
  0.64780940D-02 -0.36231268D-02 -0.22783194D-02 -0.36092407D-03  0.83728395D-02
  0.52650662D-02  0.83407494D-03 -0.30977102D-02 -0.19479233D-02 -0.30858377D-03
 -0.31932616D-04 -0.30883836D-04 -0.96251426D-05 -0.12115177D-04  0.16205027D-04
  0.12230176D-04  0.39408277D-04  0.24780982D-04  0.39257240D-05 -0.16225098D-03
 -0.10202777D-03 -0.16162913D-04  0.22202602D-04  0.13961592D-04  0.22117507D-05
 -0.55749816D-04 -0.53918795D-04 -0.16804133D-04 -0.23764373D-04  0.31786769D-04
  0.23989949D-04  0.33902298D-05  0.21318675D-05  0.33772363D-06 -0.40542823D-03
 -0.25494415D-03 -0.40387437D-04  0.12196049D-03  0.76692031D-04  0.12149306D-04
 -0.13491117D-05 -0.13048021D-05 -0.40664982D-06 -0.29445201D-05  0.39385335D-05
  0.29724700D-05 -0.17934672D-04 -0.11277803D-04 -0.17865935D-05 -0.94981292D-05
 -0.59726785D-05 -0.94617262D-06 -0.32432587D-04 -0.20394481D-04 -0.32308285D-05
  0.16447342D-02  0.15907153D-02  0.49575648D-03  0.11904596D-02 -0.15923359D-02
 -0.12017597D-02 -0.22470874D-02 -0.14130289D-02 -0.22384751D-03  0.50822940D-02
  0.31958828D-02  0.50628154D-03 -0.18883699D-02 -0.11874577D-02 -0.18811324D-03
  0.10948909D-04  0.10589308D-04  0.33002249D-05 -0.84694426D-05 -0.81912761D-05
 -0.25528630D-05 -0.22066209D-05 -0.21341477D-05 -0.66512061D-06  0.10458266D-04
  0.10114780D-04  0.31523350D-05 -0.20575405D-04 -0.19899636D-04 -0.62018473D-05
 -0.62867880D-04 -0.60803077D-04 -0.18949663D-04 -0.35530701D-04 -0.34363748D-04
 -0.10709679D-04
MO    3     MO 0.0        OCC NO =    2.0000000  ORB. ENERGY =  -14.545172
  0.27614006D-04  0.26707064D-04  0.83234253D-05  0.48465055D-05 -0.64825926D-05
 -0.48925093D-05  0.89062374D-04  0.56004811D-04  0.88721030D-05 -0.33274618D-04
 -0.20923973D-04 -0.33147088D-05  0.33668663D-04  0.21171759D-04  0.33539623D-05
 -0.76961576D-04 -0.74433886D-04 -0.23197791D-04 -0.11222036D-04  0.15010380D-04
  0.11328558D-04 -0.10899414D-03 -0.68538438D-04 -0.10857640D-04 -0.17264919D-03
 -0.10856644D-03 -0.17198749D-04 -0.19792245D-05 -0.12445895D-05 -0.19716388D-06
  0.34310562D+01  0.33183682D+01  0.10341904D+01 -0.62909619D-02  0.84146697D-02
  0.63506768D-02  0.58980203D-02  0.37088335D-02  0.58754153D-03 -0.63447019D-03
 -0.39897188D-03 -0.63203849D-04  0.23010817D-02  0.14469819D-02  0.22922625D-03
  0.14705356D-02  0.14222380D-02  0.44324946D-03  0.86934147D-03 -0.11628144D-02
 -0.87759341D-03  0.22226774D-02  0.13976792D-02  0.22141586D-03  0.33582240D-02
  0.21117414D-02  0.33453531D-03 -0.76428980D-03 -0.48060594D-03 -0.76136055D-04
 -0.19960692D-04 -0.19305112D-04 -0.60165602D-05 -0.45204357D-04  0.60464479D-04
  0.45633444D-04 -0.29735642D-04 -0.18698570D-04 -0.29621676D-05 -0.18706159D-03
 -0.11762934D-03 -0.18634465D-04 -0.36597641D-04 -0.23013579D-04 -0.36457376D-05
 -0.61181359D-04 -0.59171947D-04 -0.18441311D-04 -0.62866774D-04  0.84089388D-04
  0.63463516D-04 -0.22086216D-03 -0.13888406D-03 -0.22001568D-04 -0.18376562D-03
 -0.11555675D-03 -0.18306131D-04  0.11280956D-04  0.70937679D-05  0.11237720D-05
  0.79642438D-04  0.77026699D-04  0.24005858D-04 -0.22661410D-04 -0.21917129D-04
 -0.68306119D-05 -0.26569465D-04 -0.25696830D-04 -0.80085794D-05  0.38521575D-04
  0.37256391D-04  0.11611190D-04 -0.19632984D-02 -0.18988168D-02 -0.59177825D-03
 -0.19626378D-02 -0.18981778D-02 -0.59157911D-03 -0.21045647D-05 -0.20354433D-05
 -0.63435878D-06
MO    4     MO 0.0        OCC NO =    2.0000000  ORB. ENERGY =  -10.482506
  0.21573307D-02  0.20864763D-02  0.65026352D-03  0.11730934D-02 -0.15691072D-02
 -0.11842286D-02  0.35418437D-02  0.22272064D-02  0.35282691D-03  0.43467993D-02
  0.27333840D-02  0.43301396D-03 -0.53419101D-03 -0.33591364D-03 -0.53214365D-04
  0.16826324D-02  0.16273688D-02  0.50717979D-03  0.16244082D-02 -0.21727771D-02
 -0.16398273D-02  0.15566846D-02  0.97888504D-03  0.15507184D-03 -0.38778801D-02
 -0.24385151D-02 -0.38630176D-03  0.14092655D-02  0.88618396D-03  0.14038643D-03
 -0.11169896D-03 -0.10803037D-03 -0.33668347D-04 -0.10031416D-03  0.13417829D-03
  0.10126636D-03  0.10951937D-03  0.68868716D-04  0.10909962D-04 -0.88467846D-05
 -0.55630955D-05 -0.88128780D-06 -0.24640366D-04 -0.15494523D-04 -0.24545928D-05
 -0.17127723D-01 -0.16565188D-01 -0.51626457D-02  0.96814624D-03 -0.12949738D-02
 -0.97733605D-03 -0.37693666D-02 -0.23702789D-02 -0.37549199D-03  0.82197133D-03
  0.51687763D-03  0.81882101D-04 -0.10291770D-02 -0.64717410D-03 -0.10252325D-03
 -0.83876905D-03 -0.81122091D-03 -0.25282212D-03 -0.29638750D-04  0.39644222D-04
  0.29920086D-04 -0.20699682D-03 -0.13016516D-03 -0.20620348D-04  0.25040652D-04
  0.15746234D-04  0.24944680D-05 -0.51997600D-04 -0.32697486D-04 -0.51798312D-05
  0.26861679D+01  0.25979447D+01  0.80966587D+00 -0.55175958D-02  0.73802301D-02
  0.55699698D-02  0.38645651D-03  0.24301422D-03  0.38497536D-04 -0.55749638D-03
 -0.35056868D-03 -0.55535969D-04  0.21942961D-03  0.13798323D-03  0.21858862D-04
 -0.34415082D-04 -0.33284769D-04 -0.10373409D-04 -0.37600241D-04 -0.36365316D-04
 -0.11333481D-04 -0.48031147D-04 -0.46453634D-04 -0.14477569D-04 -0.51523604D-04
 -0.49831387D-04 -0.15530267D-04 -0.83576447D-04 -0.80831501D-04 -0.25191648D-04
 -0.14046845D-03 -0.13585497D-03 -0.42340061D-04 -0.44245683D-03 -0.42792499D-03
 -0.13336553D-03
MO    5     MO 0.0        OCC NO =    2.0000000  ORB. ENERGY =  -10.428111
 -0.34762554D-04 -0.33620828D-04 -0.10478144D-04 -0.51516304D-04  0.68907219D-04
  0.52005306D-04 -0.98089822D-04 -0.61681512D-04 -0.97713878D-05 -0.12051026D-03
 -0.75780086D-04 -0.12004839D-04  0.84471119D-05  0.53117707D-05  0.84147371D-06
 -0.89840201D-04 -0.86889531D-04 -0.27079672D-04 -0.36730361D-04  0.49129826D-04
  0.37079012D-04 -0.50854216D-03 -0.31978496D-03 -0.50659310D-04 -0.64710865D-04
 -0.40691928D-04 -0.64462851D-05 -0.89982170D-04 -0.56583203D-04 -0.89637301D-05
  0.22364799D-02  0.21630260D-02  0.67412072D-03  0.10646687D-02 -0.14240804D-02
 -0.10747748D-02 -0.27444320D-02 -0.17257725D-02 -0.27339136D-03 -0.43123298D-02
 -0.27117087D-02 -0.42958022D-03  0.10453619D-02  0.65735160D-03  0.10413554D-03
  0.26841826D+01  0.25960246D+01  0.80906747D+00 -0.63404770D-02  0.84809003D-02
  0.64006619D-02  0.10301677D-03  0.64779708D-04  0.10262194D-04  0.26657611D-03
  0.16763021D-03  0.26555441D-04 -0.36495148D-03 -0.22949128D-03 -0.36355275D-04
 -0.21336522D-01 -0.20635755D-01 -0.64312635D-02  0.10947636D-02 -0.14643348D-02
 -0.11051553D-02 -0.15542021D-02 -0.97732402D-03 -0.15482454D-03  0.34436072D-02
  0.21654326D-02  0.34304091D-03  0.21530077D-02  0.13538690D-02  0.21447560D-03
  0.20657051D-01  0.19978600D-01  0.62264570D-02  0.98298060D-03 -0.13148160D-02
 -0.99231123D-03  0.41726286D-02  0.26238608D-02  0.41566364D-03 -0.62395920D-03
 -0.39236229D-03 -0.62156779D-04  0.10067716D-02  0.63308499D-03  0.10029130D-03
 -0.22697564D-02 -0.21952095D-02 -0.68415093D-03  0.41436228D-04  0.40075316D-04
  0.12489726D-04  0.38123800D-04  0.36871679D-04  0.11491292D-04  0.29635405D-04
  0.28662073D-04  0.89327162D-05 -0.14869663D-03 -0.14381291D-03 -0.44820203D-04
 -0.12946942D-03 -0.12521718D-03 -0.39024726D-04 -0.37967366D-04 -0.36720383D-04
 -0.11444139D-04
MO    6     MO 0.0        OCC NO =    2.0000000  ORB. ENERGY =  -10.385621
 -0.60788884D-04 -0.58792362D-04 -0.18323011D-04 -0.25201538D-04  0.33709092D-04
  0.25440755D-04 -0.66207437D-04 -0.41633013D-04 -0.65953688D-05  0.92192520D-05
  0.57973130D-05  0.91839179D-06 -0.29089666D-04 -0.18292363D-04 -0.28978176D-05
  0.17608284D-05  0.17029966D-05  0.53074964D-06  0.58018076D-05 -0.77603864D-05
 -0.58568794D-05  0.42707132D-05  0.26855391D-05  0.42543451D-06  0.91568544D-05
  0.57580758D-05  0.91217594D-06  0.54528786D-04  0.34289164D-04  0.54319797D-05
  0.25293777D-04  0.24463040D-04  0.76240611D-05 -0.42126940D-04  0.56348185D-04
  0.42526816D-04  0.11031466D-03  0.69368817D-04  0.10989186D-04 -0.90239362D-06
 -0.56744932D-06 -0.89893506D-07 -0.46403674D-04 -0.29179876D-04 -0.46225825D-05
  0.24867518D-01  0.24050781D-01  0.74955778D-02  0.98455779D-03 -0.13169256D-02
 -0.99390338D-03  0.16065712D-02  0.10102551D-02  0.16004138D-03 -0.33914616D-02
 -0.21326420D-02 -0.33784633D-03 -0.21705790D-02 -0.13649183D-02 -0.21622600D-03
  0.26839668D+01  0.25958158D+01  0.80900241D+00 -0.66232226D-02  0.88590952D-02
  0.66860913D-02 -0.75061657D-04 -0.47200784D-04 -0.74773972D-05  0.15761380D-03
  0.99111785D-04  0.15700972D-04  0.14230864D-03  0.89487492D-04  0.14176322D-04
  0.12067722D-02  0.11671375D-02  0.36374579D-03 -0.39311205D-05  0.52581913D-05
  0.39684354D-05 -0.15139408D-04 -0.95200662D-05 -0.15081384D-05 -0.90648420D-04
 -0.57002159D-04 -0.90300997D-05 -0.36655688D-04 -0.23050080D-04 -0.36515200D-05
  0.13058856D-04  0.12629957D-04  0.39362059D-05 -0.22569948D-02 -0.21828671D-02
 -0.68030434D-03 -0.22534879D-02 -0.21794754D-02 -0.67924729D-03 -0.22589649D-02
 -0.21847725D-02 -0.68089816D-03 -0.13179234D-04 -0.12746381D-04 -0.39724903D-05
 -0.41718132D-04 -0.40347961D-04 -0.12574697D-04  0.50708401D-06  0.49042958D-06
  0.15284548D-06
MO    7     MO 0.0        OCC NO =    2.0000000  ORB. ENERGY =   -1.147541
 -0.66547603D+00 -0.64361944D+00 -0.20058807D+00 -0.13261956D+00  0.17738938D+00
  0.13387841D+00  0.19442921D-01  0.12226230D-01  0.19368403D-02 -0.19589107D+00
 -0.12318156D+00 -0.19514029D-01  0.59508513D-01  0.37420550D-01  0.59280438D-02
 -0.57796776D+00 -0.55898525D+00 -0.17421129D+00 -0.11128859D+00  0.14885748D+00
  0.11234496D+00 -0.71379236D-01 -0.44885179D-01 -0.71105665D-02  0.20264055D+00
  0.12742582D+00  0.20186390D-01 -0.71699015D-01 -0.45086265D-01 -0.71424218D-02
 -0.28804427D-01 -0.27858388D-01 -0.86822427D-02 -0.49238237D-02  0.65860120D-02
  0.49705615D-02  0.11469719D-01  0.72124669D-02  0.11425759D-02  0.31833301D-02
  0.20017634D-02  0.31711295D-03  0.18915198D-02  0.11894384D-02  0.18842702D-03
 -0.56358926D-01 -0.54507900D-01 -0.16987732D-01 -0.82980438D-02  0.11099304D-01
  0.83768103D-02  0.20774564D-01  0.13063604D-01  0.20694943D-02 -0.32284370D-02
 -0.20301278D-02 -0.32160635D-03  0.53926163D-02  0.33910218D-02  0.53719483D-03
 -0.13044988D-01 -0.12616544D-01 -0.39320258D-02 -0.17342778D-02  0.23197366D-02
  0.17507398D-02  0.36696900D-02  0.23075995D-02  0.36556253D-03 -0.29326387D-02
 -0.18441219D-02 -0.29213989D-03 -0.14360292D-02 -0.90301369D-03 -0.14305254D-03
 -0.35323780D+00 -0.34163622D+00 -0.10647309D+00 -0.49757467D-01  0.66554632D-01
  0.50229774D-01  0.73526172D-01  0.46235230D-01  0.73244372D-02 -0.21231799D-01
 -0.13351125D-01 -0.21150425D-02  0.20655748D-01  0.12988888D-01  0.20576581D-02
  0.18295891D-02  0.17694990D-02  0.55147554D-03  0.12544308D-02  0.12132309D-02
  0.37811107D-03  0.31668292D-03  0.30628193D-03  0.95454699D-04  0.56102738D-03
  0.54260125D-03  0.16910511D-03  0.13151377D-02  0.12719439D-02  0.39640935D-03
  0.17386506D-02  0.16815472D-02  0.52406481D-03  0.25638765D-01  0.24796698D-01
  0.77280475D-02
MO    8     MO 0.0        OCC NO =    2.0000000  ORB. ENERGY =   -1.060294
 -0.69842589D+00 -0.67548711D+00 -0.21051983D+00 -0.14327429D+00  0.19164094D+00
  0.14463428D+00  0.58250409D-01  0.36629420D-01  0.58027156D-02 -0.13416546D+00
 -0.84366841D-01 -0.13365125D-01  0.49581029D-01  0.31177882D-01  0.49391003D-02
  0.71005601D+00  0.68673526D+00  0.21402538D+00  0.14109117D+00 -0.18872084D+00
 -0.14243043D+00  0.99446964D-01  0.62534920D-01  0.99065819D-02 -0.18663672D+00
 -0.11736218D+00 -0.18592141D-01  0.72699833D-01  0.45715606D-01  0.72421200D-02
  0.39888358D-01  0.38578283D-01  0.12023166D-01  0.69969614D-02 -0.93590011D-02
 -0.70633777D-02 -0.14726094D-01 -0.92601631D-02 -0.14669654D-02 -0.90651802D-03
 -0.57004286D-03 -0.90304366D-04 -0.35120057D-02 -0.22084434D-02 -0.34985454D-03
  0.19735834D-01  0.19087639D-01  0.59487834D-02  0.32099240D-02 -0.42935327D-02
 -0.32403931D-02 -0.30384820D-02 -0.19106790D-02 -0.30268366D-03  0.10431065D-01
  0.65593338D-02  0.10391087D-02 -0.37218489D-02 -0.23403984D-02 -0.37075843D-03
 -0.16155823D-02 -0.15625208D-02 -0.48696949D-03 -0.19168534D-03  0.25639463D-03
  0.19350485D-03  0.17847502D-02  0.11222988D-02  0.17779099D-03  0.11757050D-02
  0.73931486D-03  0.11711989D-03 -0.21585341D-03 -0.13573442D-03 -0.21502612D-04
  0.11072977D+00  0.10709301D+00  0.33376214D-01  0.14764997D-01 -0.19749376D-01
 -0.14905149D-01  0.13853441D-02  0.87114156D-03  0.13800346D-03  0.17238266D+00
  0.10839884D+00  0.17172198D-01 -0.48742508D-01 -0.30650597D-01 -0.48555695D-02
 -0.18562900D-03 -0.17953229D-03 -0.55952373D-04  0.11168274D-02  0.10801469D-02
  0.33663459D-03 -0.38046516D-04 -0.36796934D-04 -0.11467997D-04 -0.12775845D-04
 -0.12356241D-04 -0.38509005D-05 -0.21562215D-02 -0.20854036D-02 -0.64992920D-03
 -0.28119882D-02 -0.27196326D-02 -0.84759069D-03  0.30202546D-01  0.29210587D-01
  0.91036642D-02
MO    9     MO 0.0        OCC NO =    2.0000000  ORB. ENERGY =   -0.939503
  0.27849605D-01  0.26934925D-01  0.83944397D-02  0.59085076D-02 -0.79031063D-02
 -0.59645922D-02 -0.27201595D-01 -0.17105093D-01 -0.27097341D-02  0.99769986D-02
  0.62738045D-02  0.99387603D-03 -0.71091566D-02 -0.44704284D-02 -0.70819097D-03
  0.14526258D+00  0.14049164D+00  0.43785108D-01  0.29986382D-01 -0.40109208D-01
 -0.30271018D-01 -0.14393430D-01 -0.90509749D-02 -0.14338265D-02 -0.39101178D-01
 -0.24587870D-01 -0.38951317D-02  0.90628233D-02  0.56989465D-02  0.90280888D-03
 -0.64095760D+00 -0.61990629D+00 -0.19319771D+00 -0.11941221D+00  0.15972348D+00
  0.12054569D+00  0.16492717D+00  0.10371063D+00  0.16429506D-01  0.16957061D-01
  0.10663055D-01  0.16892070D-02  0.51187853D-01  0.32188295D-01  0.50991668D-02
 -0.32772324D+00 -0.31695965D+00 -0.98782477D-01 -0.50537971D-01  0.67598619D-01
  0.51017686D-01 -0.33116251D-01 -0.20824387D-01 -0.32989328D-02 -0.56131233D-01
 -0.35296826D-01 -0.55916102D-02  0.21294176D-01  0.13390350D-01  0.21212563D-02
 -0.13026813D+00 -0.12598967D+00 -0.39265476D-01 -0.19884524D-01  0.26597157D-01
  0.20073271D-01  0.88711366D-02  0.55784087D-02  0.88371366D-03 -0.31070657D-01
 -0.19538063D-01 -0.30951574D-02 -0.12526067D-01 -0.78767273D-02 -0.12478059D-02
 -0.30938406D-01 -0.29922279D-01 -0.93254675D-02 -0.50501398D-02  0.67549700D-02
  0.50980766D-02 -0.61913081D-01 -0.38932607D-01 -0.61675790D-02  0.24679271D-01
  0.15518988D-01  0.24584684D-02 -0.17700231D-01 -0.11130380D-01 -0.17632392D-02
  0.16092849D-01  0.15564302D-01  0.48507133D-02  0.57677528D-02  0.55783194D-02
  0.17385185D-02  0.67335477D-02  0.65123942D-02  0.20296288D-02  0.73283955D-02
  0.70877050D-02  0.22089281D-02  0.34672048D-01  0.33533296D-01  0.10450864D-01
  0.33794712D-01  0.32684775D-01  0.10186417D-01 -0.36359266D-02 -0.35165099D-02
 -0.10959425D-02
MO   10     MO 0.0        OCC NO =    2.0000000  ORB. ENERGY =   -0.795676
  0.89331077D-01  0.86397129D-01  0.26926211D-01  0.20300783D-01 -0.27153937D-01
 -0.20493481D-01 -0.11878159D+00 -0.74693052D-01 -0.11832634D-01  0.96510593D-03
  0.60688451D-03  0.96140702D-04 -0.14290931D-01 -0.89865209D-02 -0.14236159D-02
  0.58498744D-01  0.56577439D-01  0.17632716D-01  0.12583080D-01 -0.16830886D-01
 -0.12702521D-01 -0.17465440D-01 -0.10982738D-01 -0.17398501D-02  0.65867765D-02
  0.41419418D-02  0.65615317D-03 -0.70091417D-03 -0.44075364D-03 -0.69822782D-04
  0.34349176D+00  0.33221028D+00  0.10353543D+00  0.68543810D-01 -0.91682883D-01
 -0.69194440D-01 -0.65417463D-01 -0.41136256D-01 -0.65166741D-02  0.96455117D-01
  0.60653566D-01  0.96085439D-02 -0.46510961D-01 -0.29247341D-01 -0.46332701D-02
 -0.28352878D+00 -0.27421670D+00 -0.85461367D-01 -0.48371893D-01  0.64701314D-01
  0.48831047D-01  0.27068622D-01  0.17021476D-01  0.26964877D-02  0.11593525D+00
  0.72903199D-01  0.11549091D-01  0.19676633D-01  0.12373195D-01  0.19601219D-02
 -0.45535561D+00 -0.44040012D+00 -0.13725348D+00 -0.75281138D-01  0.10069460D+00
  0.75995720D-01  0.24006000D-01  0.15095617D-01  0.23913994D-02 -0.19053601D-01
 -0.11981416D-01 -0.18980576D-02 -0.17602518D-01 -0.11068936D-01 -0.17535054D-02
 -0.10831361D+00 -0.10475621D+00 -0.32647935D-01 -0.19177778D-01  0.25651827D-01
  0.19359816D-01 -0.68824795D-01 -0.43278878D-01 -0.68561014D-02  0.36633979D-01
  0.23036429D-01  0.36493574D-02 -0.15080274D-01 -0.94828810D-02 -0.15022477D-02
  0.23046128D-01  0.22289212D-01  0.69465737D-02  0.35405877D-01  0.34243023D-01
  0.10672055D-01  0.31960720D-01  0.30911017D-01  0.96336139D-02  0.33618212D-01
  0.32514071D-01  0.10133216D-01 -0.27046028D-01 -0.26157741D-01 -0.81522252D-02
 -0.30810597D-01 -0.29798668D-01 -0.92869431D-02 -0.15293074D-01 -0.14790795D-01
 -0.46096448D-02
MO   11     MO 0.0        OCC NO =    2.0000000  ORB. ENERGY =   -0.690447
 -0.10693375D+00 -0.10342167D+00 -0.32232017D-01 -0.25471222D-01  0.34069817D-01
  0.25712999D-01  0.29868119D+00  0.18781875D+00  0.29753645D-01  0.84746442D-01
  0.53290837D-01  0.84421639D-02  0.56748783D-01  0.35685158D-01  0.56531285D-02
 -0.19576397D+00 -0.18933439D+00 -0.59007260D-01 -0.45363266D-01  0.60677033D-01
  0.45793862D-01  0.83209991D-01  0.52324676D-01  0.82891077D-02 -0.33422730D-01
 -0.21017109D-01 -0.33294632D-02  0.43881987D-01  0.27594171D-01  0.43713803D-02
 -0.15304218D+00 -0.14801573D+00 -0.46130038D-01 -0.32203690D-01  0.43075037D-01
  0.32509373D-01 -0.29253824D-01 -0.18395590D-01 -0.29141705D-02 -0.69092300D-01
 -0.43447092D-01 -0.68827494D-02  0.77530110D-01  0.48753014D-01  0.77232965D-02
  0.28133168D+00  0.27209175D+00  0.84799114D-01  0.51842349D-01 -0.69343330D-01
 -0.52334446D-01 -0.14151705D+00 -0.88989718D-01 -0.14097466D-01  0.39732979D-01
  0.24985163D-01  0.39580697D-02  0.68090188D-01  0.42816938D-01  0.67829223D-02
 -0.35085767D+00 -0.33933426D+00 -0.10575567D+00 -0.61863663D-01  0.82747647D-01
  0.62450883D-01 -0.53563828D-01 -0.33682373D-01 -0.53358537D-02  0.55587457D-01
  0.34954885D-01  0.55374410D-02  0.48197401D-01  0.30307819D-01  0.48012677D-02
  0.27801192D+00  0.26888102D+00  0.83798471D-01  0.52803516D-01 -0.70628969D-01
 -0.53304737D-01  0.12863360D+00  0.80888262D-01  0.12814060D-01 -0.75644360D-01
 -0.47567204D-01 -0.75354443D-02  0.71819373D-01  0.45161949D-01  0.71544115D-02
 -0.36582261D-01 -0.35380771D-01 -0.11026641D-01  0.33786103D-01  0.32676448D-01
  0.10183822D-01  0.40712034D-01  0.39374907D-01  0.12271439D-01  0.40327038D-01
  0.39002555D-01  0.12155393D-01  0.24142138D-01  0.23349225D-01  0.72769335D-02
  0.11848207D-01  0.11459070D-01  0.35712915D-02  0.37177143D-01  0.35956114D-01
  0.11205950D-01
MO   12     MO 0.0        OCC NO =    2.0000000  ORB. ENERGY =   -0.589208
  0.94989508D-01  0.91869717D-01  0.28631778D-01  0.23584835D-01 -0.31546622D-01
 -0.23808706D-01 -0.60498159D+00 -0.38042866D+00 -0.60266291D-01 -0.23319463D+00
 -0.14663904D+00 -0.23230088D-01 -0.93034957D-02 -0.58502878D-02 -0.92678387D-03
  0.18736638D+00  0.18121261D+00  0.56476055D-01  0.46078422D-01 -0.61633611D-01
 -0.46515806D-01 -0.40668107D-01 -0.25573197D-01 -0.40512240D-02  0.14774703D+00
  0.92907294D-01  0.14718076D-01 -0.99631081D-02 -0.62650697D-02 -0.99249231D-03
 -0.71789356D-01 -0.69431540D-01 -0.21638778D-01 -0.16006367D-01  0.21409808D-01
  0.16158302D-01 -0.14897317D-01 -0.93678325D-02 -0.14840221D-02 -0.18733627D+00
 -0.11780207D+00 -0.18661827D-01  0.15278057D+00  0.96072521D-01  0.15219501D-01
  0.26595577D+00  0.25722084D+00  0.80164500D-01  0.52160745D-01 -0.69769210D-01
 -0.52655864D-01  0.13005058D+00  0.81779292D-01  0.12955214D-01  0.50026586D-02
  0.31458060D-02  0.49834852D-03  0.14485119D+00  0.91086318D-01  0.14429603D-01
 -0.74744472D-01 -0.72289599D-01 -0.22529510D-01 -0.14142118D-01  0.18916226D-01
  0.14276358D-01  0.26263344D-01  0.16515096D-01  0.26162686D-02  0.67425728D-01
  0.42399107D-01  0.67167309D-02  0.98040643D-01  0.61650587D-01  0.97664888D-02
 -0.28333159D+00 -0.27402598D+00 -0.85401930D-01 -0.59281992D-01  0.79294453D-01
  0.59844707D-01  0.27290777D-01  0.17161173D-01  0.27186181D-02  0.14737973D+00
  0.92676326D-01  0.14681487D-01  0.72025982D-02  0.45291871D-02  0.71749932D-03
 -0.61437520D-01 -0.59419695D-01 -0.18518523D-01  0.20411171D-01  0.19740796D-01
  0.61523439D-02  0.41524635D-03  0.40160819D-03  0.12516373D-03  0.27548717D-01
  0.26643919D-01  0.83037459D-02  0.36394916D-01  0.35199578D-01  0.10970171D-01
  0.17182696D-01  0.16618355D-01  0.51792154D-02 -0.72630794D-01 -0.70245342D-01
 -0.21892405D-01
MO   13     MO 0.0        OCC NO =    2.0000000  ORB. ENERGY =   -0.515419
 -0.99494488D-02 -0.96226738D-02 -0.29989671D-02 -0.28157802D-02  0.37663335D-02
  0.28425081D-02  0.29720812D+00  0.18689244D+00  0.29606903D-01  0.16993392D+00
  0.10685901D+00  0.16928262D-01  0.15127934D+00  0.95128508D-01  0.15069954D-01
  0.72495445D-01  0.70114438D-01  0.21851608D-01  0.19625250D-01 -0.26250357D-01
 -0.19811536D-01 -0.20701226D+00 -0.13017487D+00 -0.20621886D-01  0.46112331D-01
  0.28996671D-01  0.45935599D-02  0.11145792D+00  0.70087733D-01  0.11103074D-01
  0.82638925D-01  0.79924771D-01  0.24909060D-01  0.18805735D-01 -0.25154189D-01
 -0.18984242D-01 -0.17567845D-01 -0.11047132D-01 -0.17500513D-02  0.25258297D+00
  0.15883095D+00  0.25161491D-01  0.27862326D+00  0.17520578D+00  0.27755539D-01
 -0.90665842D-01 -0.87688055D-01 -0.27328537D-01 -0.19499624D-01  0.26082322D-01
  0.19684718D-01  0.17137028D-01  0.10776223D-01  0.17071348D-02 -0.42492552D-01
 -0.26720457D-01 -0.42329693D-02  0.28557723D+00  0.17957863D+00  0.28448272D-01
  0.49323789D-01  0.47703821D-01  0.14867197D-01  0.93777681D-02 -0.12543522D-01
 -0.94667835D-02  0.58096794D-01  0.36532823D-01  0.57874130D-02 -0.19214476D+00
 -0.12082578D+00 -0.19140834D-01  0.10674425D+00  0.67123647D-01  0.10633514D-01
 -0.27281612D-01 -0.26385588D-01 -0.82232352D-02 -0.44034024D-02  0.58899064D-02
  0.44452002D-02 -0.17461986D+00 -0.10980565D+00 -0.17395060D-01 -0.66194529D-01
 -0.41624896D-01 -0.65940829D-02  0.12701199D+00  0.79868548D-01  0.12652520D-01
 -0.55129389D-01 -0.53318745D-01 -0.16617124D-01 -0.41212595D-01 -0.39859028D-01
 -0.12422318D-01 -0.34572476D-01 -0.33436994D-01 -0.10420851D-01  0.29410472D-01
  0.28444528D-01  0.88649170D-02  0.40818304D-01  0.39477687D-01  0.12303471D-01
 -0.68368322D-01 -0.66122865D-01 -0.20607609D-01  0.38275794D-01  0.37018681D-01
  0.11537106D-01
MO   14     MO 0.0        OCC NO =    2.0000000  ORB. ENERGY =   -0.495103
  0.83188687D-01  0.80456477D-01  0.25074770D-01  0.23141897D-01 -0.30954157D-01
 -0.23361564D-01 -0.37263409D+00 -0.23432231D+00 -0.37120591D-01 -0.36524922D+00
 -0.22967851D+00 -0.36384935D-01  0.36910698D-01  0.23210437D-01  0.36769232D-02
 -0.45997129D-01 -0.44486420D-01 -0.13864474D-01 -0.11940155D-01  0.15970922D-01
  0.12053493D-01  0.36216638D+00  0.22773994D+00  0.36077833D-01  0.14231304D+00
  0.89490258D-01  0.14176760D-01  0.69647405D-01  0.43796157D-01  0.69380471D-02
 -0.75899115D-01 -0.73406319D-01 -0.22877543D-01 -0.18268635D-01  0.24435776D-01
  0.18442044D-01 -0.15822554D+00 -0.99496466D-01 -0.15761912D-01  0.27345857D+00
  0.17195809D+00  0.27241051D-01  0.14670588D+00  0.92252595D-01  0.14614361D-01
 -0.43087703D-01 -0.41672551D-01 -0.12987514D-01 -0.10041302D-01  0.13431053D-01
  0.10136616D-01 -0.24765054D+00 -0.15572930D+00 -0.24670138D-01  0.70723298D-01
  0.44472707D-01  0.70452240D-02 -0.11559240D-02 -0.72687606D-03 -0.11514938D-03
  0.38000928D-01  0.36752844D-01  0.11454256D-01  0.75033854D-02 -0.10036384D-01
 -0.75746089D-02 -0.11906566D+00 -0.74871682D-01 -0.11860932D-01 -0.15736905D+00
 -0.98957884D-01 -0.15676591D-01 -0.99970877D-01 -0.62864370D-01 -0.99587724D-02
  0.16470992D-01  0.15930027D-01  0.49646935D-02  0.14360462D-02 -0.19208279D-02
 -0.14496774D-02  0.28617699D+00  0.17995577D+00  0.28508018D-01  0.14718313D+00
  0.92552699D-01  0.14661903D-01  0.38931097D-01  0.24480919D-01  0.38781888D-02
  0.12567160D-01  0.12154410D-01  0.37879987D-02 -0.48190571D-01 -0.46607822D-01
 -0.14525622D-01  0.23560884D-01  0.22787061D-01  0.71017317D-02 -0.22680218D-01
 -0.21935320D-01 -0.68362810D-02  0.27864530D-01  0.26949360D-01  0.83989385D-02