 opt alanine pbe0
GAUSSIAN             37 MOL ORBITALS    111 PRIMITIVES       13 NUCLEI
  O    1    (CENTRE  1)   3.20203395  1.48084207 -0.97740748  CHARGE =  8.0
  O    2    (CENTRE  2)   2.16206284 -2.06388251  1.38752396  CHARGE =  8.0
  N    3    (CENTRE  3)  -2.63798711 -2.11560666 -0.99758771  CHARGE =  7.0
  C    4    (CENTRE  4)  -1.25748190  0.34808916 -0.78596472  CHARGE =  6.0
  C    5    (CENTRE  5)  -2.42423198  2.24956405  1.11961472  CHARGE =  6.0
  C    6    (CENTRE  6)   1.49767963 -0.28396169  0.01444568  CHARGE =  6.0
  H    7    (CENTRE  7)  -1.20190495  1.23892460 -2.66770399  CHARGE =  1.0
  H    8    (CENTRE  8)  -1.31622769  3.99487019  1.16665386  CHARGE =  1.0
  H    9    (CENTRE  9)  -4.35943671  2.71893672  0.55837992  CHARGE =  1.0
  H   10    (CENTRE 10)  -2.46725321  1.44231647  3.02394885  CHARGE =  1.0
  H   11    (CENTRE 11)  -4.56518260 -1.65443862 -0.91885312  CHARGE =  1.0
  H   12    (CENTRE 12)  -2.31237360 -3.01580149  0.74106184  CHARGE =  1.0
  H   13    (CENTRE 13)   4.87971965  0.86661315 -0.28987940  CHARGE =  1.0
CENTRE ASSIGNMENTS    1  1  1  1  1  1  1  1  1  1  1  1  1  1  1  2  2  2  2  2
CENTRE ASSIGNMENTS    2  2  2  2  2  2  2  2  2  2  3  3  3  3  3  3  3  3  3  3
CENTRE ASSIGNMENTS    3  3  3  3  3  4  4  4  4  4  4  4  4  4  4  4  4  4  4  4
CENTRE ASSIGNMENTS    5  5  5  5  5  5  5  5  5  5  5  5  5  5  5  6  6  6  6  6
CENTRE ASSIGNMENTS    6  6  6  6  6  6  6  6  6  6  7  7  7  8  8  8  9  9  9 10
CENTRE ASSIGNMENTS   10 10 11 11 11 12 12 12 13 13 13
TYPE ASSIGNMENTS      1  1  1  1  1  1  2  2  2  3  3  3  4  4  4  1  1  1  1  1
TYPE ASSIGNMENTS      1  2  2  2  3  3  3  4  4  4  1  1  1  1  1  1  2  2  2  3
TYPE ASSIGNMENTS      3  3  4  4  4  1  1  1  1  1  1  2  2  2  3  3  3  4  4  4
TYPE ASSIGNMENTS      1  1  1  1  1  1  2  2  2  3  3  3  4  4  4  1  1  1  1  1
TYPE ASSIGNMENTS      1  2  2  2  3  3  3  4  4  4  1  1  1  1  1  1  1  1  1  1
TYPE ASSIGNMENTS      1  1  1  1  1  1  1  1  1  1  1
EXPONENTS  0.1307093D+03 0.2380887D+02 0.6443608D+01 0.5033151D+01 0.1169596D+01
EXPONENTS  0.3803890D+00 0.5033151D+01 0.1169596D+01 0.3803890D+00 0.5033151D+01
EXPONENTS  0.1169596D+01 0.3803890D+00 0.5033151D+01 0.1169596D+01 0.3803890D+00
EXPONENTS  0.1307093D+03 0.2380887D+02 0.6443608D+01 0.5033151D+01 0.1169596D+01
EXPONENTS  0.3803890D+00 0.5033151D+01 0.1169596D+01 0.3803890D+00 0.5033151D+01
EXPONENTS  0.1169596D+01 0.3803890D+00 0.5033151D+01 0.1169596D+01 0.3803890D+00
EXPONENTS  0.9910617D+02 0.1805231D+02 0.4885660D+01 0.3780456D+01 0.8784966D+00
EXPONENTS  0.2857144D+00 0.3780456D+01 0.8784966D+00 0.2857144D+00 0.3780456D+01
EXPONENTS  0.8784966D+00 0.2857144D+00 0.3780456D+01 0.8784966D+00 0.2857144D+00
EXPONENTS  0.7161684D+02 0.1304510D+02 0.3530512D+01 0.2941249D+01 0.6834831D+00
EXPONENTS  0.2222899D+00 0.2941249D+01 0.6834831D+00 0.2222899D+00 0.2941249D+01
EXPONENTS  0.6834831D+00 0.2222899D+00 0.2941249D+01 0.6834831D+00 0.2222899D+00
EXPONENTS  0.7161684D+02 0.1304510D+02 0.3530512D+01 0.2941249D+01 0.6834831D+00
EXPONENTS  0.2222899D+00 0.2941249D+01 0.6834831D+00 0.2222899D+00 0.2941249D+01
EXPONENTS  0.6834831D+00 0.2222899D+00 0.2941249D+01 0.6834831D+00 0.2222899D+00
EXPONENTS  0.7161684D+02 0.1304510D+02 0.3530512D+01 0.2941249D+01 0.6834831D+00
EXPONENTS  0.2222899D+00 0.2941249D+01 0.6834831D+00 0.2222899D+00 0.2941249D+01
EXPONENTS  0.6834831D+00 0.2222899D+00 0.2941249D+01 0.6834831D+00 0.2222899D+00
EXPONENTS  0.3425251D+01 0.6239137D+00 0.1688554D+00 0.3425251D+01 0.6239137D+00
EXPONENTS  0.1688554D+00 0.3425251D+01 0.6239137D+00 0.1688554D+00 0.3425251D+01
EXPONENTS  0.6239137D+00 0.1688554D+00 0.3425251D+01 0.6239137D+00 0.1688554D+00
EXPONENTS  0.3425251D+01 0.6239137D+00 0.1688554D+00 0.3425251D+01 0.6239137D+00
EXPONENTS  0.1688554D+00
MO    1     MO 0.0        OCC NO =    2.0000005  ORB. ENERGY =    0.000000
 -0.30964208D-01 -0.29947234D-01 -0.93332447D-02 -0.46470588D-04  0.62158166D-04
  0.46911695D-04 -0.33149528D-03 -0.20845313D-03 -0.33022478D-04 -0.19462587D-03
 -0.12238597D-03 -0.19387994D-04  0.71811402D-04  0.45156937D-04  0.71536174D-05
 -0.64562799D+00 -0.62442328D+00 -0.19460546D+00 -0.61523550D-04  0.82292719D-04
  0.62107542D-04  0.15692980D-02  0.98681669D-03  0.15632834D-03 -0.26696775D-02
 -0.16787648D-02 -0.26594456D-03  0.21630013D-02  0.13601533D-02  0.21547113D-03
  0.33920054D+01  0.32806000D+01  0.10224197D+01 -0.27406323D-02  0.36658171D-02
  0.27666469D-02 -0.67536342D-02 -0.42468664D-02 -0.67277499D-03  0.13100411D-01
  0.82378900D-02  0.13050202D-02  0.19838469D-01  0.12474962D-01  0.19762435D-02
 -0.40058395D-01 -0.38742736D-01 -0.12074419D-01  0.72994400D-03 -0.97635907D-03
 -0.73687275D-03  0.13292482D-02  0.83586693D-03  0.13241537D-03  0.33492399D-02
  0.21060919D-02  0.33364034D-03  0.16358778D-02  0.10286839D-02  0.16296081D-03
  0.31960412D-01  0.30910719D-01  0.96335211D-02  0.68271451D-06 -0.91318581D-06
 -0.68919496D-06 -0.45419635D-03 -0.28561085D-03 -0.45245558D-04  0.30664658D-03
  0.19282760D-03  0.30547131D-04  0.47576127D-03  0.29917145D-03  0.47393785D-04
 -0.23044912D+00 -0.22288036D+00 -0.69462072D-01  0.31914033D-03 -0.42687597D-03
 -0.32216966D-03 -0.22121455D-03 -0.13910564D-03 -0.22036671D-04 -0.33622381D-03
 -0.21142655D-03 -0.33493518D-04  0.17835748D-03  0.11215597D-03  0.17767390D-04
  0.30647726D-03  0.29641147D-03  0.92378507D-04  0.23650363D-03  0.22873601D-03
  0.71287024D-04  0.19018958D-04  0.18394309D-04  0.57327025D-05 -0.22233666D-05
 -0.21503434D-05 -0.67016812D-06 -0.16661251D-02 -0.16114037D-02 -0.50220414D-03
 -0.16371887D-02 -0.15834177D-02 -0.49348212D-03  0.10975659D-03  0.10615179D-03
  0.33082877D-04
MO    2     MO 0.0        OCC NO =    2.0000005  ORB. ENERGY =    0.000000
  0.15796647D+00  0.15277829D+00  0.47614321D-01  0.28543602D-03 -0.38179374D-03
 -0.28814543D-03  0.21982870D-02  0.13823418D-02  0.21898617D-03  0.73374229D-03
  0.46139684D-03  0.73093012D-04 -0.14852583D-03 -0.93397026D-04 -0.14795658D-04
  0.36854329D+01  0.35643903D+01  0.11108648D+01 -0.12877398D-03  0.17224560D-03
  0.12999633D-03 -0.56317643D-02 -0.35414045D-02 -0.56101798D-03  0.15101003D-01
  0.94959156D-02  0.15043126D-02 -0.11694828D-01 -0.73540220D-02 -0.11650006D-02
  0.60076708D+00  0.58103577D+00  0.18108347D+00 -0.60988037D-03  0.81576427D-03
  0.61566946D-03 -0.99553710D-03 -0.62602045D-03 -0.99172156D-04  0.19111705D-02
  0.12017953D-02  0.19038457D-03  0.34695227D-02  0.21817290D-02  0.34562252D-03
 -0.14314765D-01 -0.13844617D-01 -0.43147625D-02  0.75488475D-03 -0.10097193D-02
 -0.76205024D-03 -0.28585260D-02 -0.17975179D-02 -0.28475703D-03  0.10251375D-02
  0.64463397D-03  0.10212085D-03 -0.43699944D-03 -0.27479698D-03 -0.43532458D-04
  0.70129780D-02  0.67826470D-02  0.21138548D-02 -0.45824253D-04  0.61293641D-04
  0.46259225D-04  0.58403452D-04  0.36725658D-04  0.58179612D-05 -0.35224492D-04
 -0.22150106D-04 -0.35089489D-05 -0.12767425D-04 -0.80284993D-05 -0.12718492D-05
  0.12490500D+01  0.12080268D+01  0.37648918D+00 -0.19761817D-02  0.26433027D-02
  0.19949400D-02  0.11431816D-04  0.71886326D-05  0.11388002D-05  0.21312387D-02
  0.13401801D-02  0.21230704D-03 -0.14339201D-02 -0.90168743D-03 -0.14284244D-03
  0.16535190D-03  0.15992115D-03  0.49840439D-04  0.38920993D-04  0.37642690D-04
  0.11731582D-04 -0.12490506D-03 -0.12080274D-03 -0.37648938D-04  0.11236665D-04
  0.10867613D-04  0.33869603D-05 -0.39102017D-03 -0.37817769D-03 -0.11786147D-03
 -0.44460746D-03 -0.43000498D-03 -0.13401377D-03 -0.49278503D-03 -0.47660023D-03
 -0.14853547D-03
MO    3     MO 0.0        OCC NO =    2.0000003  ORB. ENERGY =    0.000000
  0.41992166D+01  0.40612995D+01  0.12657297D+01 -0.49464839D-03  0.66163219D-03
  0.49934368D-03  0.35250306D-02  0.22166338D-02  0.35115204D-03 -0.17389401D-01
 -0.10934922D-01 -0.17322754D-02  0.13015793D-01  0.81846802D-02  0.12965909D-02
 -0.44480279D+00 -0.43019389D+00 -0.13407265D+00 -0.41585009D-04  0.55623309D-04
  0.41979741D-04  0.69644483D-03  0.43794320D-03  0.69377561D-04 -0.19424278D-02
 -0.12214507D-02 -0.19349831D-03  0.15252605D-02  0.95912472D-03  0.15194147D-03
  0.46142852D-02  0.44627358D-02  0.13908398D-02  0.96973126D-05 -0.12970939D-04
 -0.97893612D-05 -0.13796549D-03 -0.86756401D-04 -0.13743672D-04 -0.25107251D-04
 -0.15788113D-04 -0.25011024D-05  0.20567979D-04  0.12933697D-04  0.20489149D-05
  0.27818967D-01  0.26905294D-01  0.83852049D-02  0.90220419D-05 -0.12067710D-04
 -0.91076807D-05 -0.39248704D-03 -0.24680638D-03 -0.39098277D-04  0.27054355D-03
  0.17012504D-03  0.26950665D-04 -0.38238295D-03 -0.24045266D-03 -0.38091741D-04
  0.21357636D-01  0.20656176D-01  0.64376277D-02 -0.68507483D-04  0.91634293D-04
  0.69157768D-04  0.26295709D-04  0.16535447D-04  0.26194927D-05  0.17937171D-04
  0.11279375D-04  0.17868425D-05  0.14228797D-04  0.89474497D-05  0.14174264D-05
  0.31012980D+00  0.29994404D+00  0.93479456D-01 -0.23811576D-03  0.31849907D-03
  0.24037600D-03 -0.84519867D-03 -0.53148361D-03 -0.84195933D-04 -0.38013891D-02
 -0.23904154D-02 -0.37868197D-03  0.26093073D-02  0.16408024D-02  0.25993067D-03
 -0.15445259D-03 -0.14937982D-03 -0.46555166D-04 -0.72878803D-04 -0.70485205D-04
 -0.21967160D-04 -0.32946297D-04 -0.31864224D-04 -0.99306867D-05 -0.24218377D-04
 -0.23422960D-04 -0.72999136D-05 -0.25313819D-04 -0.24482423D-04 -0.76301020D-05
  0.55441582D-05  0.53620685D-05  0.16711225D-05 -0.14038900D-02 -0.13577812D-02
 -0.42316111D-03
MO    4     MO 0.0        OCC NO =    2.0000002  ORB. ENERGY =    0.000000
 -0.62022946D+00 -0.59985893D+00 -0.18694983D+00  0.12512614D-02 -0.16736633D-02
 -0.12631386D-02  0.22439396D-02  0.14110495D-02  0.22353394D-03  0.45659581D-02
  0.28711969D-02  0.45484584D-03 -0.28589175D-02 -0.17977640D-02 -0.28479603D-03
 -0.19421048D+01 -0.18783192D+01 -0.58539005D+00  0.80128945D-03 -0.10717894D-02
 -0.80889542D-03  0.25816234D-02  0.16233941D-02  0.25717289D-03 -0.65838310D-02
 -0.41400896D-02 -0.65585975D-03  0.51800081D-02  0.32573281D-02  0.51601550D-03
  0.34407476D-02  0.33277412D-02  0.10371116D-02 -0.20011365D-03  0.26766818D-03
  0.20201317D-03  0.27111346D-03  0.17048342D-03  0.27007437D-04  0.84800105D-03
  0.53324582D-03  0.84475097D-04  0.26990379D-03  0.16972275D-03  0.26886935D-04
 -0.46751665D+00 -0.45216175D+00 -0.14091907D+00  0.21749098D-02 -0.29091176D-02
 -0.21955545D-02 -0.42514924D-02 -0.26734525D-02 -0.42351979D-03  0.14028711D-02
  0.88216300D-03  0.13974944D-03 -0.13393161D-02 -0.84219792D-03 -0.13341830D-03
 -0.52013691D-01 -0.50305377D-01 -0.15677989D-01 -0.56082612D-04  0.75015024D-04
  0.56614958D-04  0.11357654D-03  0.71419976D-04  0.11314124D-04 -0.43724985D-03
 -0.27495444D-03 -0.43557403D-04 -0.44554679D-03 -0.28017178D-03 -0.44383917D-04
  0.23064940D+01  0.22307405D+01  0.69522439D+00 -0.57424798D-02  0.76810307D-02
  0.57969885D-02  0.22172026D-02  0.13942365D-02  0.22087048D-03 -0.27722710D-02
 -0.17432784D-02 -0.27616458D-03  0.24768729D-02  0.15575241D-02  0.24673799D-03
  0.41342062D-03  0.39984243D-03  0.12461342D-03  0.31139838D-04  0.30117096D-04
  0.93861832D-05 -0.99048014D-04 -0.95794927D-04 -0.29855094D-04  0.36610407D-04
  0.35407992D-04  0.11035124D-04 -0.86090744D-04 -0.83263219D-04 -0.25949509D-04
  0.37890701D-04  0.36646236D-04  0.11421031D-04 -0.17848483D-03 -0.17262276D-03
 -0.53798974D-04
MO    5     MO 0.0        OCC NO =    2.0000001  ORB. ENERGY =    0.000000
 -0.15246004D+00 -0.14745271D+00 -0.45954569D-01  0.24416471D-03 -0.32659003D-03
 -0.24648237D-03 -0.20582618D-04 -0.12942902D-04 -0.20503732D-05  0.41122032D-03
  0.25858637D-03  0.40964426D-04 -0.46664614D-03 -0.29343962D-03 -0.46485765D-04
 -0.29235034D+00 -0.28274852D+00 -0.88120364D-01  0.18333983D-03 -0.24523183D-03
 -0.18508012D-03 -0.10075016D-02 -0.63354403D-03 -0.10036402D-03 -0.94344280D-03
 -0.59326215D-03 -0.93982692D-04  0.51338375D-03  0.32282948D-03  0.51141613D-04
  0.24438521D-01  0.23635873D-01  0.73662693D-02  0.62142939D-03 -0.83121201D-03
 -0.62732810D-03 -0.15584617D-02 -0.98000255D-03 -0.15524887D-03 -0.28231491D-02
 -0.17752719D-02 -0.28123289D-03 -0.41709578D-03 -0.26228102D-03 -0.41549720D-04
  0.21811617D+01  0.21095246D+01  0.65744669D+00 -0.50126444D-02  0.67048168D-02
  0.50602252D-02  0.70890940D-03  0.44578126D-03  0.70619240D-04 -0.12148151D-02
 -0.76390836D-03 -0.12101592D-03 -0.11703778D-02 -0.73596495D-03 -0.11658921D-03
  0.15032848D+01  0.14539116D+01  0.45312074D+00 -0.32837353D-02  0.43922612D-02
  0.33149051D-02 -0.12468002D-02 -0.78402144D-03 -0.12420217D-03  0.19324321D-02
  0.12151652D-02  0.19250258D-03  0.18563558D-02  0.11673263D-02  0.18492410D-03
  0.36449444D+00  0.35252316D+00  0.10986607D+00 -0.22188209D-03  0.29678522D-03
  0.22398824D-03  0.30085856D-02  0.18918794D-02  0.29970548D-03 -0.11103274D-02
 -0.69820369D-03 -0.11060720D-03  0.12205807D-02  0.76753391D-03  0.12159027D-03
 -0.18589095D-02 -0.17978563D-02 -0.56031329D-03 -0.12202905D-02 -0.11802118D-02
 -0.36782047D-03 -0.11868950D-02 -0.11479132D-02 -0.35775440D-03 -0.12420513D-02
 -0.12012579D-02 -0.37437963D-03 -0.22217937D-03 -0.21488222D-03 -0.66969401D-04
 -0.22771997D-03 -0.22024084D-03 -0.68639450D-04 -0.44829749D-04 -0.43357382D-04
 -0.13512602D-04
MO    6     MO 0.0        OCC NO =    2.0000000  ORB. ENERGY =    0.000000
 -0.48416419D-01 -0.46826253D-01 -0.14593698D-01  0.92700956D-04 -0.12399502D-03
 -0.93580889D-04  0.54044553D-04  0.33984665D-04  0.53837419D-05  0.23869240D-03
  0.15009619D-03  0.23777758D-04 -0.61374040D-04 -0.38593643D-04 -0.61138815D-05
 -0.15441411D+00 -0.14934260D+00 -0.46543566D-01  0.96022894D-04 -0.12843838D-03
 -0.96934360D-04 -0.68907499D-03 -0.43330884D-03 -0.68643401D-04 -0.61734556D-03
 -0.38820345D-03 -0.61497949D-04  0.24589092D-03  0.15462281D-03  0.24494850D-04
  0.67056528D-01  0.64854155D-01  0.20212207D-01  0.40550413D-03 -0.54239453D-03
 -0.40935324D-03 -0.10789059D-02 -0.67844500D-03 -0.10747709D-03 -0.20098566D-02
 -0.12638518D-02 -0.20021535D-03 -0.14316935D-03 -0.90028726D-04 -0.14262063D-04
  0.14863765D+01  0.14375587D+01  0.44802424D+00 -0.44589794D-02  0.59642452D-02
  0.45013048D-02 -0.10493544D-02 -0.65986218D-03 -0.10453326D-03  0.18584551D-02
  0.11686464D-02  0.18513323D-03  0.18254400D-02  0.11478856D-02  0.18184437D-03
 -0.22185244D+01 -0.21456602D+01 -0.66870856D+00  0.65402133D-02 -0.87480636D-02
 -0.66022941D-02 -0.80044745D-03 -0.50334283D-03 -0.79737962D-04  0.14733323D-02
  0.92647086D-03  0.14676855D-03  0.13649475D-02  0.85831560D-03  0.13597161D-03
  0.19626782D+00  0.18982169D+00  0.59159129D-01 -0.25169373D-04  0.33666069D-04
  0.25408285D-04  0.20406077D-02  0.12831889D-02  0.20327868D-03 -0.70293987D-03
 -0.44202745D-03 -0.70024575D-04  0.82770657D-03  0.52048410D-03  0.82453427D-04
 -0.12772652D-02 -0.12353153D-02 -0.38499381D-03  0.17842285D-02  0.17256281D-02
  0.53780291D-03  0.17640524D-02  0.17061147D-02  0.53172144D-03  0.17387753D-02
  0.16816678D-02  0.52410240D-03 -0.87017303D-04 -0.84159347D-04 -0.26228792D-04
 -0.16532653D-03 -0.15989662D-03 -0.49832792D-04 -0.45722585D-04 -0.44220893D-04
 -0.13781721D-04
MO    7     MO 0.0        OCC NO =    1.9995866  ORB. ENERGY =    0.000000
  0.80564200D+00  0.77918187D+00  0.24283695D+00  0.19550271D+00 -0.26150067D+00
 -0.19735845D+00  0.58615933D-01  0.36859271D-01  0.58391279D-02 -0.27201227D+00
 -0.17104862D+00 -0.27096975D-01  0.20476370D+00  0.12876091D+00  0.20397891D-01
 -0.55137577D+00 -0.53326664D+00 -0.16619592D+00 -0.13041000D+00  0.17443392D+00
  0.13164788D+00 -0.11250934D-01 -0.70748895D-02 -0.11207814D-02 -0.13037944D+00
 -0.81986091D-01 -0.12987974D-01  0.94186121D-01  0.59226761D-01  0.93825139D-02
  0.14157308D-02  0.13692332D-02  0.42673018D-03  0.82894065D-03 -0.11087751D-02
 -0.83680910D-03 -0.12467753D-03 -0.78400578D-04 -0.12419969D-04  0.26911740D-02
  0.16922825D-02  0.26808597D-03  0.40120199D-02  0.25228658D-02  0.39966433D-03
  0.62259564D-02  0.60214740D-02  0.18766304D-02 -0.12847249D-03  0.17184234D-03
  0.12969198D-03  0.24651733D-02  0.15501671D-02  0.24557252D-03 -0.37229038D-02
 -0.23410618D-02 -0.37086352D-03  0.31243414D-02  0.19646697D-02  0.31123669D-03
  0.16525978D-02  0.15983206D-02  0.49812672D-03  0.14081360D-03 -0.18834957D-03
 -0.14215023D-03 -0.15961824D-02 -0.10037223D-02 -0.15900648D-03 -0.62888084D-04
 -0.39545715D-04 -0.62647056D-05  0.55410293D-03  0.34843479D-03  0.55197925D-04
 -0.18662192D-01 -0.18049260D-01 -0.56251660D-02 -0.78401463D-03  0.10486829D-02
  0.79145663D-03  0.12922308D-01  0.81258938D-02  0.12872781D-02 -0.39604372D-01
 -0.24904292D-01 -0.39452582D-02  0.30784993D-01  0.19358430D-01  0.30667005D-02
 -0.36878951D-02 -0.35667716D-02 -0.11116069D-02 -0.13586243D-02 -0.13140022D-02
 -0.40951710D-03  0.46474081D-03  0.44947708D-03  0.14008237D-03 -0.67296590D-04
 -0.65086332D-04 -0.20284567D-04  0.15567100D-04  0.15055821D-04  0.46922418D-05
  0.21168813D-02  0.20473554D-02  0.63807126D-03  0.19492631D-02  0.18852424D-02
  0.58754772D-03
MO    8     MO 0.0        OCC NO =    1.9995556  ORB. ENERGY =    0.000000
  0.54597264D+00  0.52804097D+00  0.16456730D+00  0.12880199D+00 -0.17228307D+00
 -0.13002460D+00  0.44975277D-01  0.28281661D-01  0.44802903D-02 -0.13397648D+00
 -0.84248008D-01 -0.13346300D-01  0.10424607D+00  0.65552724D-01  0.10384653D-01
  0.82555988D+00  0.79844558D+00  0.24884061D+00  0.19741898D+00 -0.26406383D+00
 -0.19929291D+00 -0.93297239D-01 -0.58667808D-01 -0.92939664D-02  0.11733969D+00
  0.73786349D-01  0.11688997D-01 -0.10133882D+00 -0.63724568D-01 -0.10095042D-01
 -0.27618795D-02 -0.26711696D-02 -0.83248688D-03 -0.12411685D-02  0.16601631D-02
  0.12529499D-02  0.23125521D-02  0.14541948D-02  0.23036889D-03 -0.82388376D-02
 -0.51808022D-02 -0.82072611D-03 -0.78008421D-02 -0.49053788D-02 -0.77709442D-03
  0.23090134D-01  0.22331772D-01  0.69598380D-02  0.38415943D-02 -0.51384427D-02
 -0.38780594D-02 -0.27242598D-01 -0.17130877D-01 -0.27138187D-02  0.25488896D-02
  0.16028102D-02  0.25391206D-03 -0.75189451D-02 -0.47281145D-02 -0.74901277D-03
  0.98914719D-03  0.95666010D-03  0.29814917D-03 -0.19760382D-03  0.26431108D-03
  0.19947951D-03  0.34809537D-02  0.21889171D-02  0.34676124D-03 -0.18471543D-02
 -0.11615402D-02 -0.18400748D-03 -0.20186333D-02 -0.12693708D-02 -0.20108966D-03
  0.15092019D+00  0.14596344D+00  0.45490427D-01  0.86060679D-02 -0.11511311D-01
 -0.86877582D-02  0.61340025D-02  0.38572254D-02  0.61104931D-03 -0.36241488D-02
 -0.22789620D-02 -0.36102587D-03  0.34205737D-02  0.21509485D-02  0.34074638D-03
  0.78159934D-03  0.75592886D-03  0.23559001D-03 -0.38667549D-03 -0.37397570D-03
 -0.11655189D-03 -0.16047503D-02 -0.15520447D-02 -0.48370453D-03  0.24306200D-03
  0.23507898D-03  0.73263850D-04 -0.93464848D-03 -0.90395132D-03 -0.28172214D-03
 -0.95202818D-03 -0.92076021D-03 -0.28696074D-03 -0.52583375D-02 -0.50856351D-02
 -0.15849703D-02
MO    9     MO 0.0        OCC NO =    1.9992143  ORB. ENERGY =    0.000000
 -0.56825017D-02 -0.54958683D-02 -0.17128221D-02 -0.11664301D-02  0.15601945D-02
  0.11775021D-02  0.92703102D-03  0.58294198D-03  0.92347804D-04  0.41654616D-02
  0.26193540D-02  0.41494969D-03  0.27996389D-02  0.17604880D-02  0.27889088D-03
 -0.29202775D-02 -0.28243652D-02 -0.88023128D-03 -0.17662993D-02  0.23625680D-02
  0.17830653D-02  0.41423058D-01  0.26047931D-01  0.41264298D-02 -0.26151892D-03
 -0.16445012D-03 -0.26051661D-04  0.69267102D-02  0.43557012D-02  0.69001625D-03
  0.70013135D+00  0.67713656D+00  0.21103389D+00  0.16738410D+00 -0.22388976D+00
 -0.16897294D+00 -0.15922011D+00 -0.10012188D+00 -0.15860988D-01  0.28466344D+00
  0.17900401D+00  0.28357243D-01  0.44541267D+00  0.28008744D+00  0.44370556D-01
  0.97189566D-01  0.93997517D-01  0.29294920D-01  0.93975060D-02 -0.12569923D-01
 -0.94867088D-02 -0.25820243D-01 -0.16236462D-01 -0.25721284D-02  0.28317127D-01
  0.17806569D-01  0.28208598D-02  0.50563319D-01  0.31795572D-01  0.50369527D-02
  0.61898925D-02  0.59865945D-02  0.18657600D-02  0.40105069D-02 -0.53643769D-02
 -0.40485753D-02 -0.10106252D-01 -0.63550825D-02 -0.10067518D-02  0.30168519D-01
  0.18970774D-01  0.30052893D-02  0.21891361D-01  0.13765875D-01  0.21807459D-02
  0.24062336D-01  0.23272043D-01  0.72528794D-02  0.31862159D-02 -0.42618212D-02
 -0.32164600D-02  0.13916096D-01  0.87508146D-02  0.13862761D-02  0.50809416D-02
  0.31950324D-02  0.50614682D-03  0.17717783D-02  0.11141417D-02  0.17649877D-03
  0.23107334D-02  0.22348407D-02  0.69650223D-03  0.11285803D-01  0.10915138D-01
  0.34017717D-02 -0.56924258D-03 -0.55054664D-03 -0.17158134D-03 -0.30198858D-03
 -0.29207021D-03 -0.91025526D-04 -0.22496864D-02 -0.21757988D-02 -0.67810144D-03
 -0.23831625D-02 -0.23048911D-02 -0.71833387D-03  0.86995828D-03  0.84138577D-03
  0.26222319D-03
MO   10     MO 0.0        OCC NO =    1.9985113  ORB. ENERGY =    0.000000
  0.45094137D-01  0.43613087D-01  0.13592294D-01  0.11614434D-01 -0.15535243D-01
 -0.11724680D-01 -0.29207753D-01 -0.18366619D-01 -0.29095810D-02 -0.75067335D-02
 -0.47204355D-02 -0.74779629D-03  0.44112200D-01  0.27738935D-01  0.43943134D-02
  0.31730199D-01  0.30688067D-01  0.95641300D-02  0.94005719D-02 -0.12574024D-01
 -0.94898038D-02 -0.92198637D-01 -0.57976977D-01 -0.91845273D-02  0.15753038D-01
  0.99059332D-02  0.15692663D-02 -0.18227633D-01 -0.11462025D-01 -0.18157773D-02
 -0.21685689D-01 -0.20973454D-01 -0.65365097D-02  0.70246575D-02 -0.93960469D-02
 -0.70913368D-02 -0.46611175D-01 -0.29310358D-01 -0.46432531D-02  0.12695626D+00
  0.79833501D-01  0.12646968D-01  0.16653002D+00  0.10471854D+00  0.16589177D-01
 -0.32460507D+00 -0.31394389D+00 -0.97842598D-01 -0.49638976D-01  0.66396141D-01
  0.50110158D-01 -0.16196188D-01 -0.10184598D-01 -0.16134114D-02  0.53070033D-01
  0.33371861D-01  0.52866634D-02  0.98593118D-02  0.61997998D-02  0.98215245D-03
 -0.51539884D+00 -0.49847132D+00 -0.15535174D+00 -0.82097974D-01  0.10981267D+00
  0.82877262D-01 -0.16970346D-01 -0.10671409D-01 -0.16905304D-02  0.24332617D-01
  0.15301002D-01  0.24239358D-02  0.27806763D-01  0.17485639D-01  0.27700190D-02
 -0.94977237D-01 -0.91857849D-01 -0.28628079D-01 -0.15335159D-01  0.20512014D-01
  0.15480723D-01 -0.54857774D-01 -0.34496040D-01 -0.54647523D-02  0.12160502D-01
  0.76468502D-02  0.12113895D-02 -0.41947829D-02 -0.26377920D-02 -0.41787058D-03
  0.32074617D-01  0.31021173D-01  0.96679447D-02  0.43776467D-01  0.42338693D-01
  0.13195121D-01  0.42325167D-01  0.40935059D-01  0.12757670D-01  0.44928890D-01
  0.43453267D-01  0.13542485D-01  0.10032904D-01  0.97033876D-02  0.30241221D-02
  0.11080769D-01  0.10716837D-01  0.33399701D-02 -0.19979355D-02 -0.19323162D-02
 -0.60221856D-03
MO   11     MO 0.0        OCC NO =    1.9980078  ORB. ENERGY =    0.000000
  0.59849957D-01  0.57884273D-01  0.18040000D-01  0.16452088D-01 -0.22005996D-01
 -0.16608254D-01 -0.71818223D-01 -0.45161226D-01 -0.71542969D-02 -0.66683099D-01
 -0.41932122D-01 -0.66427526D-02  0.25329614D-01  0.15927941D-01  0.25232535D-02
  0.49257838D-01  0.47640037D-01  0.14847319D-01  0.16480955D-01 -0.22044608D-01
 -0.16637395D-01 -0.21409030D+00 -0.13462572D+00 -0.21326976D-01  0.32987551D-01
  0.20743457D-01  0.32861121D-02 -0.56664326D-01 -0.35632049D-01 -0.56447152D-02
  0.28438214D-01  0.27504203D-01  0.85718586D-02  0.21462700D-01 -0.28708095D-01
 -0.21666427D-01 -0.22874224D-01 -0.14383926D-01 -0.22786556D-02  0.18460463D+00
  0.11608435D+00  0.18389711D-01  0.25256555D+00  0.15881999D+00  0.25159755D-01
 -0.42916116D+00 -0.41506599D+00 -0.12935794D+00 -0.74694138D-01  0.99909444D-01
  0.75403148D-01  0.39408685D-01  0.24781239D-01  0.39257646D-02  0.31911270D-01
  0.20066663D-01  0.31788965D-02 -0.70822457D-01 -0.44535061D-01 -0.70551019D-02
  0.30552454D+00  0.29549004D+00  0.92091338D-01  0.56176326D-01 -0.75140374D-01
 -0.56709561D-01  0.82098061D-01  0.51625464D-01  0.81783409D-02 -0.90181395D-01
 -0.56708481D-01 -0.89835761D-02 -0.79555742D-01 -0.50026786D-01 -0.79250833D-02
 -0.20820744D+00 -0.20136917D+00 -0.62757975D-01 -0.34887094D-01  0.46664306D-01
  0.35218248D-01 -0.10660317D+00 -0.67034934D-01 -0.10619460D-01  0.96485294D-02
  0.60672542D-02  0.96115500D-03 -0.27796659D-01 -0.17479285D-01 -0.27690125D-02
  0.64924625D-01  0.62792271D-01  0.19569608D-01 -0.34629786D-01 -0.33492421D-01
 -0.10438125D-01 -0.49387463D-01 -0.47765404D-01 -0.14886390D-01 -0.34149431D-01
 -0.33027843D-01 -0.10293336D-01  0.26619131D-02  0.25744864D-02  0.80235496D-03
  0.18573490D-01  0.17963471D-01  0.55984293D-02 -0.61715567D-02 -0.59688609D-02
 -0.18602332D-02
MO   12     MO 0.0        OCC NO =    1.9977349  ORB. ENERGY =    0.000000
 -0.42201065D-01 -0.40815033D-01 -0.12720263D-01 -0.14090000D-01  0.18846514D-01
  0.14223745D-01  0.48502862D-01  0.30499901D-01  0.48316968D-02  0.62479262D-01
  0.39288636D-01  0.62239801D-02 -0.85244889D-01 -0.53604274D-01 -0.84918176D-02
 -0.12505721D-01 -0.12094989D-01 -0.37694796D-02 -0.69373411D-02  0.92792542D-02
  0.70031915D-02  0.20079657D-02  0.12626627D-02  0.20002699D-03 -0.70811498D-01
 -0.44528170D-01 -0.70540103D-02  0.46101499D-01  0.28989860D-01  0.45924808D-02
 -0.26187743D+00 -0.25327645D+00 -0.78935207D-01 -0.30209086D-01  0.40407092D-01
  0.30495835D-01 -0.31532200D+00 -0.19828293D+00 -0.31411348D-01  0.21542940D+00
  0.13546779D+00  0.21460373D-01  0.56387801D+00  0.35458163D+00  0.56171687D-01
  0.88707265D-01  0.85793805D-01  0.26738182D-01  0.17445506D-01 -0.23334773D-01
 -0.17611101D-01 -0.10420767D+00 -0.65528580D-01 -0.10380828D-01 -0.48888364D-01
 -0.30742315D-01 -0.48700993D-02  0.83893394D-01  0.52754417D-01  0.83571860D-02
  0.65444984D-01  0.63295539D-01  0.19726455D-01  0.13109491D-01 -0.17535004D-01
 -0.13233929D-01 -0.15301026D+00 -0.96216957D-01 -0.15242383D-01 -0.11034644D+00
 -0.69388802D-01 -0.10992352D-01  0.37028905D-01  0.23284769D-01  0.36886986D-02
  0.13176390D+00  0.12743631D+00  0.39716332D-01  0.22336117D-01 -0.29876361D-01
 -0.22548135D-01  0.12307824D-01  0.77394898D-02  0.12260652D-02 -0.17193531D-01
 -0.10811754D-01 -0.17127634D-02  0.45491503D-02  0.28606278D-02  0.45317150D-03
 -0.17554352D-01 -0.16977805D-01 -0.52912403D-02 -0.48032634D-01 -0.46455072D-01
 -0.14478017D-01  0.22832456D-01  0.22082557D-01  0.68821685D-02  0.15072838D-01
  0.14577793D-01  0.45432612D-02  0.69777332D-01  0.67485597D-01  0.21032313D-01
  0.61514290D-01  0.59493943D-01  0.18541663D-01  0.13352312D-02  0.12913775D-02
  0.40246597D-03
MO   13     MO 0.0        OCC NO =    1.9975376  ORB. ENERGY =    0.000000
 -0.12117778D-01 -0.11719788D-01 -0.36525459D-02 -0.88775523D-02  0.11874443D-01
  0.89618196D-02 -0.67546731D-01 -0.42475197D-01 -0.67287848D-02  0.38995590D-01
  0.24521473D-01  0.38846134D-02 -0.11318786D+00 -0.71175565D-01 -0.11275405D-01
  0.14919986D-01  0.14429961D-01  0.44971885D-02  0.53400588D-02 -0.71427601D-02
 -0.53907476D-02 -0.33395945D+00 -0.21000267D+00 -0.33267951D-01 -0.77438136D-01
 -0.48695178D-01 -0.77141343D-02 -0.35851018D-02 -0.22544082D-02 -0.35713614D-03
 -0.18074901D-01 -0.17481257D-01 -0.54481443D-02 -0.37918866D-02  0.50719546D-02
  0.38278798D-02  0.85309182D-01  0.53644703D-01  0.84982222D-02 -0.83105298D-01
 -0.52258841D-01 -0.82786785D-02  0.10307878D+00  0.64818705D-01  0.10268372D-01
  0.78148491D-01  0.75581818D-01  0.23555551D-01  0.16390966D-01 -0.21924241D-01
 -0.16546552D-01  0.64413223D-01  0.40504763D-01  0.64166350D-02 -0.59716526D-01
 -0.37551354D-01 -0.59487654D-02  0.10872319D+00  0.68368059D-01  0.10830649D-01
 -0.16760557D-01 -0.16210081D-01 -0.50519741D-02 -0.36741170D-02  0.49144283D-02
  0.37089923D-02  0.25916935D+00  0.16297264D+00  0.25817604D-01 -0.11693395D+00
 -0.73531207D-01 -0.11648579D-01  0.31515412D+00  0.19817737D+00  0.31394625D-01
 -0.43677562D-01 -0.42243037D-01 -0.13165309D-01 -0.70784491D-02  0.94679975D-02
  0.71456390D-02 -0.92688177D-01 -0.58284813D-01 -0.92332936D-02 -0.23458951D-01
 -0.14751618D-01 -0.23369041D-02  0.87054797D-02  0.54742393D-02  0.86721147D-03
 -0.25920632D-01 -0.25069307D-01 -0.78130080D-02  0.15599205D-01  0.15086872D-01
  0.47019189D-02 -0.99372643D-01 -0.96108894D-01 -0.29952944D-01  0.95374326D-01
  0.92241896D-01  0.28747770D-01 -0.21666654D-01 -0.20955044D-01 -0.65307720D-02
  0.32400366D-01  0.31336223D-01  0.97661321D-02 -0.15882692D-01 -0.15361048D-01
 -0.47873676D-02
MO   14     MO 0.0        OCC NO =    1.9974395  ORB. ENERGY =    0.000000
 -0.26555194D-01 -0.25683027D-01 -0.80042778D-02 -0.25091401D-01  0.33561776D-01
  0.25329573D-01 -0.47971164D-01 -0.30165555D-01 -0.47787308D-02  0.34273523D+00
  0.21552111D+00  0.34142165D-01 -0.26515837D+00 -0.16673870D+00 -0.26414211D-01
 -0.66369446D-01 -0.64189638D-01 -0.20005107D-01 -0.25889121D-01  0.34628791D-01
  0.26134865D-01 -0.41740890D+00 -0.26247792D+00 -0.41580912D-01 -0.28081936D+00
 -0.17658675D+00 -0.27974308D-01  0.13476289D+00  0.84742518D-01  0.13424639D-01
 -0.96305818D-01 -0.93142794D-01 -0.29028541D-01 -0.15585288D-01  0.20846582D-01
  0.15733226D-01 -0.47926243D-01 -0.30137307D-01 -0.47742558D-02  0.14860557D-01
  0.93447169D-02  0.14803602D-02  0.18362069D+00  0.11546562D+00  0.18291693D-01
  0.58938720D-01  0.57002964D-01  0.17765334D-01  0.13284337D-01 -0.17768874D-01
 -0.13410434D-01 -0.35336250D-01 -0.22220382D-01 -0.35200818D-02  0.38441103D-01
  0.24172797D-01  0.38293772D-02 -0.32287908D-01 -0.20303503D-01 -0.32164160D-02
  0.11073479D-01  0.10709787D-01  0.33377728D-02  0.22883450D-02 -0.30608462D-02
 -0.23100663D-02  0.19216559D+00  0.12083888D+00  0.19142909D-01  0.29539724D+00
  0.18575371D+00  0.29426509D-01 -0.14471397D+00 -0.91000028D-01 -0.14415933D-01
  0.23535349D+00  0.22762365D+00  0.70940350D-01  0.42656773D-01 -0.57056880D-01
 -0.43061679D-01 -0.11973270D+00 -0.75291137D-01 -0.11927381D-01 -0.43426687D-01
 -0.27307866D-01 -0.43260248D-02  0.98305405D-02  0.61817077D-02  0.97928635D-03
  0.64547889D-02  0.62427908D-02  0.19456052D-02  0.10074282D+00  0.97434071D-01
  0.30365944D-01 -0.24899270D-01 -0.24081490D-01 -0.75051485D-02 -0.71474224D-01
 -0.69126758D-01 -0.21543791D-01  0.89759053D-02  0.86811048D-02  0.27055212D-02