 opt arginine b3lyp
GAUSSIAN             47 MOL ORBITALS    222 PRIMITIVES       26 NUCLEI
  O    1    (CENTRE  1)   4.63281344  3.91869645 -0.64708567  CHARGE =  8.0
  O    2    (CENTRE  2)   6.19312229  1.11641643  2.43742795  CHARGE =  8.0
  N    3    (CENTRE  3)   5.68637048 -3.14885262 -0.84341548  CHARGE =  7.0
  N    4    (CENTRE  4)  -3.65279416  0.57226578  0.53604195  CHARGE =  7.0
  N    5    (CENTRE  5)  -7.30128887  2.94772122 -0.70741492  CHARGE =  7.0
  N    6    (CENTRE  6)  -7.79071223 -1.59982390 -0.18034095  CHARGE =  7.0
  C    7    (CENTRE  7)   1.43693133 -1.01593394 -1.58839490  CHARGE =  6.0
  C    8    (CENTRE  8)   0.35374569 -1.96344796  0.97840025  CHARGE =  6.0
  C    9    (CENTRE  9)   4.38788846 -0.68319295 -1.57551732  CHARGE =  6.0
  C   10    (CENTRE 10)  -2.59439535 -2.08420189  0.92526859  CHARGE =  6.0
  C   11    (CENTRE 11)   5.19174740  1.47834125  0.32030084  CHARGE =  6.0
  C   12    (CENTRE 12)  -6.11018447  0.56750336  0.06616738  CHARGE =  6.0
  H   13    (CENTRE 13)   0.55113100  0.81270669 -2.06530891  CHARGE =  1.0
  H   14    (CENTRE 14)   0.95205373 -2.38068999 -3.08893839  CHARGE =  1.0
  H   15    (CENTRE 15)   1.10927226 -3.86218483  1.39712565  CHARGE =  1.0
  H   16    (CENTRE 16)   0.94576554 -0.68066970  2.51275340  CHARGE =  1.0
  H   17    (CENTRE 17)   4.99553415 -0.14375639 -3.50552834  CHARGE =  1.0
  H   18    (CENTRE 18)  -3.22335116 -3.37860480 -0.59970003  CHARGE =  1.0
  H   19    (CENTRE 19)  -3.27259382 -2.87853582  2.74729976  CHARGE =  1.0
  H   20    (CENTRE 20)   5.85567341 -2.97653542  1.15772443  CHARGE =  1.0
  H   21    (CENTRE 21)   7.59606072 -2.87232364 -1.40737436  CHARGE =  1.0
  H   22    (CENTRE 22)   5.21344016  5.07833679  0.80431548  CHARGE =  1.0
  H   23    (CENTRE 23)  -5.93484597  4.36498523 -0.39697695  CHARGE =  1.0
  H   24    (CENTRE 24)  -8.82024167  3.36229210  0.52356426  CHARGE =  1.0
  H   25    (CENTRE 25)  -9.68825036 -1.01719933 -0.08011406  CHARGE =  1.0
  H   26    (CENTRE 26)  -7.47255878 -2.90230472  1.28697669  CHARGE =  1.0
CENTRE ASSIGNMENTS    1  1  1  1  1  1  1  1  1  1  1  1  1  1  1  2  2  2  2  2
CENTRE ASSIGNMENTS    2  2  2  2  2  2  2  2  2  2  3  3  3  3  3  3  3  3  3  3
CENTRE ASSIGNMENTS    3  3  3  3  3  4  4  4  4  4  4  4  4  4  4  4  4  4  4  4
CENTRE ASSIGNMENTS    5  5  5  5  5  5  5  5  5  5  5  5  5  5  5  6  6  6  6  6
CENTRE ASSIGNMENTS    6  6  6  6  6  6  6  6  6  6  7  7  7  7  7  7  7  7  7  7
CENTRE ASSIGNMENTS    7  7  7  7  7  8  8  8  8  8  8  8  8  8  8  8  8  8  8  8
CENTRE ASSIGNMENTS    9  9  9  9  9  9  9  9  9  9  9  9  9  9  9 10 10 10 10 10
CENTRE ASSIGNMENTS   10 10 10 10 10 10 10 10 10 10 11 11 11 11 11 11 11 11 11 11
CENTRE ASSIGNMENTS   11 11 11 11 11 12 12 12 12 12 12 12 12 12 12 12 12 12 12 12
CENTRE ASSIGNMENTS   13 13 13 14 14 14 15 15 15 16 16 16 17 17 17 18 18 18 19 19
CENTRE ASSIGNMENTS   19 20 20 20 21 21 21 22 22 22 23 23 23 24 24 24 25 25 25 26
CENTRE ASSIGNMENTS   26 26
TYPE ASSIGNMENTS      1  1  1  1  1  1  2  2  2  3  3  3  4  4  4  1  1  1  1  1
TYPE ASSIGNMENTS      1  2  2  2  3  3  3  4  4  4  1  1  1  1  1  1  2  2  2  3
TYPE ASSIGNMENTS      3  3  4  4  4  1  1  1  1  1  1  2  2  2  3  3  3  4  4  4
TYPE ASSIGNMENTS      1  1  1  1  1  1  2  2  2  3  3  3  4  4  4  1  1  1  1  1
TYPE ASSIGNMENTS      1  2  2  2  3  3  3  4  4  4  1  1  1  1  1  1  2  2  2  3
TYPE ASSIGNMENTS      3  3  4  4  4  1  1  1  1  1  1  2  2  2  3  3  3  4  4  4
TYPE ASSIGNMENTS      1  1  1  1  1  1  2  2  2  3  3  3  4  4  4  1  1  1  1  1
TYPE ASSIGNMENTS      1  2  2  2  3  3  3  4  4  4  1  1  1  1  1  1  2  2  2  3
TYPE ASSIGNMENTS      3  3  4  4  4  1  1  1  1  1  1  2  2  2  3  3  3  4  4  4
TYPE ASSIGNMENTS      1  1  1  1  1  1  1  1  1  1  1  1  1  1  1  1  1  1  1  1
TYPE ASSIGNMENTS      1  1  1  1  1  1  1  1  1  1  1  1  1  1  1  1  1  1  1  1
TYPE ASSIGNMENTS      1  1
EXPONENTS  0.1307093D+03 0.2380887D+02 0.6443608D+01 0.5033151D+01 0.1169596D+01
EXPONENTS  0.3803890D+00 0.5033151D+01 0.1169596D+01 0.3803890D+00 0.5033151D+01
EXPONENTS  0.1169596D+01 0.3803890D+00 0.5033151D+01 0.1169596D+01 0.3803890D+00
EXPONENTS  0.1307093D+03 0.2380887D+02 0.6443608D+01 0.5033151D+01 0.1169596D+01
EXPONENTS  0.3803890D+00 0.5033151D+01 0.1169596D+01 0.3803890D+00 0.5033151D+01
EXPONENTS  0.1169596D+01 0.3803890D+00 0.5033151D+01 0.1169596D+01 0.3803890D+00
EXPONENTS  0.9910617D+02 0.1805231D+02 0.4885660D+01 0.3780456D+01 0.8784966D+00
EXPONENTS  0.2857144D+00 0.3780456D+01 0.8784966D+00 0.2857144D+00 0.3780456D+01
EXPONENTS  0.8784966D+00 0.2857144D+00 0.3780456D+01 0.8784966D+00 0.2857144D+00
EXPONENTS  0.9910617D+02 0.1805231D+02 0.4885660D+01 0.3780456D+01 0.8784966D+00
EXPONENTS  0.2857144D+00 0.3780456D+01 0.8784966D+00 0.2857144D+00 0.3780456D+01
EXPONENTS  0.8784966D+00 0.2857144D+00 0.3780456D+01 0.8784966D+00 0.2857144D+00
EXPONENTS  0.9910617D+02 0.1805231D+02 0.4885660D+01 0.3780456D+01 0.8784966D+00
EXPONENTS  0.2857144D+00 0.3780456D+01 0.8784966D+00 0.2857144D+00 0.3780456D+01
EXPONENTS  0.8784966D+00 0.2857144D+00 0.3780456D+01 0.8784966D+00 0.2857144D+00
EXPONENTS  0.9910617D+02 0.1805231D+02 0.4885660D+01 0.3780456D+01 0.8784966D+00
EXPONENTS  0.2857144D+00 0.3780456D+01 0.8784966D+00 0.2857144D+00 0.3780456D+01
EXPONENTS  0.8784966D+00 0.2857144D+00 0.3780456D+01 0.8784966D+00 0.2857144D+00
EXPONENTS  0.7161684D+02 0.1304510D+02 0.3530512D+01 0.2941249D+01 0.6834831D+00
EXPONENTS  0.2222899D+00 0.2941249D+01 0.6834831D+00 0.2222899D+00 0.2941249D+01
EXPONENTS  0.6834831D+00 0.2222899D+00 0.2941249D+01 0.6834831D+00 0.2222899D+00
EXPONENTS  0.7161684D+02 0.1304510D+02 0.3530512D+01 0.2941249D+01 0.6834831D+00
EXPONENTS  0.2222899D+00 0.2941249D+01 0.6834831D+00 0.2222899D+00 0.2941249D+01
EXPONENTS  0.6834831D+00 0.2222899D+00 0.2941249D+01 0.6834831D+00 0.2222899D+00
EXPONENTS  0.7161684D+02 0.1304510D+02 0.3530512D+01 0.2941249D+01 0.6834831D+00
EXPONENTS  0.2222899D+00 0.2941249D+01 0.6834831D+00 0.2222899D+00 0.2941249D+01
EXPONENTS  0.6834831D+00 0.2222899D+00 0.2941249D+01 0.6834831D+00 0.2222899D+00
EXPONENTS  0.7161684D+02 0.1304510D+02 0.3530512D+01 0.2941249D+01 0.6834831D+00
EXPONENTS  0.2222899D+00 0.2941249D+01 0.6834831D+00 0.2222899D+00 0.2941249D+01
EXPONENTS  0.6834831D+00 0.2222899D+00 0.2941249D+01 0.6834831D+00 0.2222899D+00
EXPONENTS  0.7161684D+02 0.1304510D+02 0.3530512D+01 0.2941249D+01 0.6834831D+00
EXPONENTS  0.2222899D+00 0.2941249D+01 0.6834831D+00 0.2222899D+00 0.2941249D+01
EXPONENTS  0.6834831D+00 0.2222899D+00 0.2941249D+01 0.6834831D+00 0.2222899D+00
EXPONENTS  0.7161684D+02 0.1304510D+02 0.3530512D+01 0.2941249D+01 0.6834831D+00
EXPONENTS  0.2222899D+00 0.2941249D+01 0.6834831D+00 0.2222899D+00 0.2941249D+01
EXPONENTS  0.6834831D+00 0.2222899D+00 0.2941249D+01 0.6834831D+00 0.2222899D+00
EXPONENTS  0.3425251D+01 0.6239137D+00 0.1688554D+00 0.3425251D+01 0.6239137D+00
EXPONENTS  0.1688554D+00 0.3425251D+01 0.6239137D+00 0.1688554D+00 0.3425251D+01
EXPONENTS  0.6239137D+00 0.1688554D+00 0.3425251D+01 0.6239137D+00 0.1688554D+00
EXPONENTS  0.3425251D+01 0.6239137D+00 0.1688554D+00 0.3425251D+01 0.6239137D+00
EXPONENTS  0.1688554D+00 0.3425251D+01 0.6239137D+00 0.1688554D+00 0.3425251D+01
EXPONENTS  0.6239137D+00 0.1688554D+00 0.3425251D+01 0.6239137D+00 0.1688554D+00
EXPONENTS  0.3425251D+01 0.6239137D+00 0.1688554D+00 0.3425251D+01 0.6239137D+00
EXPONENTS  0.1688554D+00 0.3425251D+01 0.6239137D+00 0.1688554D+00 0.3425251D+01
EXPONENTS  0.6239137D+00 0.1688554D+00
MO    1     MO 0.0        OCC NO =    2.0000000  ORB. ENERGY =  -18.934334
  0.42244402D+01  0.40856947D+01  0.12733326D+01 -0.68568121D-02  0.91715401D-02
  0.69218981D-02  0.28329516D-02  0.17814360D-02  0.28220939D-03 -0.21047216D-02
 -0.13235054D-02 -0.20966550D-03  0.61285781D-02  0.38538144D-02  0.61050895D-03
  0.37448373D-02  0.36218436D-02  0.11287705D-02 -0.48053272D-04  0.64275133D-04
  0.48509402D-04 -0.23453907D-04 -0.14748446D-04 -0.23364016D-05  0.11253276D-02
  0.70763622D-03  0.11210147D-03  0.62759035D-04  0.39464565D-04  0.62518502D-05
  0.54690354D-05  0.52894129D-05  0.16484790D-05 -0.26542127D-05  0.35502239D-05
  0.26794069D-05 -0.24983948D-04 -0.15710577D-04 -0.24888194D-05 -0.61378003D-04
 -0.38596135D-04 -0.61142763D-05 -0.16845752D-04 -0.10593061D-04 -0.16781188D-05
 -0.10987189D-05 -0.10626331D-05 -0.33117631D-06 -0.41974049D-06  0.56143682D-06
  0.42372474D-06  0.29588191D-05  0.18605849D-05  0.29474790D-06  0.74789302D-06
  0.47029520D-06  0.74502661D-07 -0.23321155D-05 -0.14664968D-05 -0.23231773D-06
  0.25090365D-07  0.24266308D-07  0.75627484D-08  0.13204011D-07 -0.17661431D-07
 -0.13329346D-07 -0.81540470D-07 -0.51274836D-07 -0.81227954D-08 -0.11265807D-06
 -0.70842421D-07 -0.11222630D-07 -0.36419465D-07 -0.22901537D-07 -0.36279882D-08
  0.95492516D-08  0.92356204D-08  0.28783395D-08  0.81118602D-08 -0.10850268D-07
 -0.81888594D-08 -0.19239293D-07 -0.12098184D-07 -0.19165556D-08  0.72233480D-08
  0.45422351D-08  0.71956635D-09 -0.43850311D-07 -0.27574253D-07 -0.43682249D-08
 -0.37340269D-04 -0.36113883D-04 -0.11255120D-04 -0.13581374D-04  0.18166184D-04
  0.13710290D-04 -0.16001026D-04 -0.10061874D-04 -0.15939699D-05  0.52903097D-04
  0.33266887D-04  0.52700338D-05  0.27657271D-04  0.17391634D-04  0.27551270D-05
  0.67750861D-05  0.65525683D-05  0.20421493D-05  0.48659146D-05 -0.65085539D-05
 -0.49121028D-05 -0.60412004D-05 -0.37988690D-05 -0.60180467D-06 -0.22862830D-05
 -0.14376761D-05 -0.22775204D-06 -0.17327039D-05 -0.10895707D-05 -0.17260630D-06
 -0.68153840D-04 -0.65915427D-04 -0.20542959D-04 -0.51067577D-04  0.68307010D-04
  0.51552320D-04  0.81129684D-05  0.51016523D-05  0.80818743D-06  0.29348550D-03
  0.18455156D-03  0.29236068D-04 -0.77899825D-04 -0.48985500D-04 -0.77601263D-05
 -0.14334028D-06 -0.13863248D-06 -0.43205688D-07 -0.18533683D-06  0.24790298D-06
  0.18709607D-06  0.61877390D-06  0.38910164D-06  0.61640236D-07 -0.49174250D-06
 -0.30922088D-06 -0.48985783D-07 -0.42178644D-06 -0.26523063D-06 -0.42016989D-07
  0.15994925D-02  0.15469595D-02  0.48211970D-03  0.77119082D-03 -0.10315300D-02
 -0.77851110D-03  0.97698699D-03  0.61435564D-03  0.97324255D-04 -0.39482589D-02
 -0.24827711D-02 -0.39331266D-03  0.17278240D-02  0.10865021D-02  0.17212019D-03
 -0.64909112D-07 -0.62777268D-07 -0.19564932D-07 -0.50695326D-07  0.67809094D-07
  0.51176535D-07  0.20395573D-06  0.12825283D-06  0.20317404D-07 -0.10994096D-06
 -0.69133825D-07 -0.10951959D-07  0.24823995D-06  0.15609994D-06  0.24728854D-07
 -0.37116098D-04 -0.35897074D-04 -0.11187550D-04  0.35567087D-05  0.34398938D-05
  0.10720647D-05  0.17900672D-05  0.17312751D-05  0.53956282D-06  0.10144990D-04
  0.98117923D-05  0.30579071D-05 -0.40210875D-04 -0.38890208D-04 -0.12120379D-04
 -0.86005090D-07 -0.83180379D-07 -0.25923691D-07 -0.13432939D-06 -0.12991754D-06
 -0.40489622D-07 -0.29137579D-04 -0.28180597D-04 -0.87826613D-05  0.58596798D-06
  0.56672272D-06  0.17662272D-06 -0.17545706D-02 -0.16969443D-02 -0.52886342D-03
  0.59815691D-07  0.57851132D-07  0.18029671D-07 -0.23211628D-08 -0.22449276D-08
 -0.69964588D-09  0.13179340D-09  0.12746484D-09  0.39725222D-10  0.15488587D-07
  0.14979887D-07  0.46685766D-08
MO    2     MO 0.0        OCC NO =    2.0000000  ORB. ENERGY =  -18.869376
 -0.40752752D-02 -0.39414287D-02 -0.12283712D-02 -0.58201488D-04  0.77849192D-04
  0.58753946D-04  0.38458272D-03  0.24183593D-03  0.38310875D-04  0.16736030D-03
  0.10524065D-03  0.16671887D-04  0.84730446D-03  0.53280778D-03  0.84405704D-04
  0.42246667D+01  0.40859137D+01  0.12734008D+01 -0.68933106D-02  0.92203599D-02
  0.69587431D-02 -0.41007139D-02 -0.25786389D-02 -0.40849973D-03  0.14769789D-02
  0.92876397D-03  0.14713182D-03 -0.86715151D-02 -0.54528814D-02 -0.86382803D-03
 -0.68143193D-04 -0.65905130D-04 -0.20539750D-04 -0.34117313D-04  0.45634662D-04
  0.34441160D-04  0.88334472D-04  0.55547087D-04  0.87995918D-05 -0.20389216D-04
 -0.12821286D-04 -0.20311071D-05  0.28148548D-03  0.17700562D-03  0.28040665D-04
 -0.27397051D-06 -0.26497235D-06 -0.82580307D-07 -0.15456101D-06  0.20673784D-06
  0.15602813D-06 -0.41087634D-08 -0.25837007D-08 -0.40930160D-09 -0.23269945D-06
 -0.14632766D-06 -0.23180759D-07 -0.34205677D-06 -0.21509447D-06 -0.34074578D-07
  0.19411809D-09  0.18774257D-09  0.58511157D-10 -0.83118702D-09  0.11117798D-08
  0.83907679D-09  0.32197313D-08  0.20246534D-08  0.32073912D-09 -0.33843679D-07
 -0.21281813D-07 -0.33713968D-08 -0.31878858D-08 -0.20046282D-08 -0.31756678D-09
  0.75592705D-09  0.73109974D-09  0.22785185D-09  0.40283902D-08 -0.53882974D-08
 -0.40666284D-08  0.28731108D-07  0.18066892D-07  0.28620992D-08 -0.16507744D-07
 -0.10380513D-07 -0.16444476D-08 -0.16145984D-07 -0.10153028D-07 -0.16084103D-08
 -0.14113545D-04 -0.13650006D-04 -0.42541106D-05 -0.42757037D-05  0.57190991D-05
  0.43162894D-05  0.17466536D-04  0.10983426D-04  0.17399593D-05  0.20871479D-04
  0.13124546D-04  0.20791486D-05 -0.88571720D-07 -0.55696274D-07 -0.88232256D-08
 -0.16731733D-04 -0.16182204D-04 -0.50432861D-05 -0.43901091D-05  0.58721256D-05
  0.44317808D-05  0.30791559D-04  0.19362559D-04  0.30673546D-05  0.26549400D-04
  0.16694975D-04  0.26447645D-05  0.77966409D-05  0.49027370D-05  0.77667591D-06
 -0.59450440D-04 -0.57497877D-04 -0.17919577D-04 -0.25093209D-04  0.33564194D-04
  0.25331398D-04  0.18138028D-03  0.11405678D-03  0.18068511D-04 -0.22449104D-03
 -0.14116599D-03 -0.22363065D-04  0.34712489D-03  0.21828144D-03  0.34579448D-04
 -0.13380915D-05 -0.12941439D-05 -0.40332812D-06 -0.97163488D-06  0.12996401D-05
  0.98085781D-06  0.38436848D-05  0.24170122D-05  0.38289534D-06 -0.27233994D-05
 -0.17125466D-05 -0.27129616D-06 -0.14554420D-05 -0.91522102D-06 -0.14498639D-06
  0.18432694D-02  0.17827299D-02  0.55559905D-03  0.12577225D-02 -0.16823055D-02
 -0.12696610D-02 -0.26693770D-02 -0.16785759D-02 -0.26591462D-03  0.94073179D-03
  0.59155739D-03  0.93712630D-04 -0.56449506D-02 -0.35496964D-02 -0.56233155D-03
 -0.14012779D-07 -0.13552550D-07 -0.42237378D-08  0.84671130D-08 -0.11325448D-07
 -0.85474843D-08 -0.55549204D-07 -0.34930830D-07 -0.55336303D-08 -0.79777436D-07
 -0.50166192D-07 -0.79471677D-08  0.41642240D-07  0.26185758D-07  0.41482640D-08
 -0.83162468D-05 -0.80431118D-05 -0.25066866D-05  0.30988867D-05  0.29971083D-05
  0.93406775D-06  0.32310762D-05  0.31249563D-05  0.97391237D-06 -0.27611398D-05
 -0.26704542D-05 -0.83226394D-06  0.82550588D-05  0.79839335D-05  0.24882433D-05
 -0.22643570D-06 -0.21899876D-06 -0.68252346D-07 -0.54455898D-07 -0.52667373D-07
 -0.16414120D-07 -0.14875574D-03 -0.14387008D-03 -0.44838018D-04  0.84830946D-07
  0.82044798D-07  0.25569780D-07 -0.35317451D-04 -0.34157501D-04 -0.10645401D-04
  0.13757105D-07  0.13305273D-07  0.41466725D-08 -0.38953920D-09 -0.37674535D-09
 -0.11741507D-09  0.16638421D-08  0.16091956D-08  0.50151599D-09  0.16786671D-07
  0.16235337D-07  0.50598454D-08
MO    3     MO 0.0        OCC NO =    2.0000000  ORB. ENERGY =  -14.151315
  0.20279486D-07  0.19613436D-07  0.61126514D-08  0.39716391D-08 -0.53123881D-08
 -0.40093386D-08  0.40526631D-07  0.25484233D-07  0.40371306D-08  0.13380740D-07
  0.84141687D-08  0.13329457D-08  0.16292247D-07  0.10245002D-07  0.16229805D-08
  0.12023160D-08  0.11628276D-08  0.36240259D-09  0.20361561D-08 -0.27235233D-08
 -0.20554836D-08 -0.14326779D-07 -0.90090628D-08 -0.14271869D-08 -0.62044028D-08
 -0.39014950D-08 -0.61806236D-09  0.22257609D-07  0.13996182D-07  0.22172304D-08
 -0.37749491D-06 -0.36509664D-06 -0.11378468D-06  0.13682970D-07 -0.18302078D-07
 -0.13812851D-07 -0.35739383D-07 -0.22473883D-07 -0.35602407D-08 -0.19368359D-07
 -0.12179344D-07 -0.19294127D-08 -0.96474867D-08 -0.60665985D-08 -0.96105113D-09
  0.15323073D-02  0.14819809D-02  0.46186872D-03 -0.25901128D-04  0.34644851D-04
  0.26146986D-04 -0.52861326D-04 -0.33240620D-04 -0.52658727D-05 -0.61456810D-03
 -0.38645691D-03 -0.61221268D-04  0.54500044D-04  0.34271090D-04  0.54291165D-05
  0.10022962D-01  0.96937727D-02  0.30211255D-02 -0.91878103D-04  0.12289439D-03
  0.92750226D-04 -0.13427305D-03 -0.84434496D-04 -0.13375843D-04 -0.43818824D-03
 -0.27554453D-03 -0.43650882D-04  0.93461858D-05  0.58771324D-05  0.93103652D-06
  0.34286766D+01  0.33160668D+01  0.10334732D+01 -0.69623644D-02  0.93127248D-02
  0.70284523D-02 -0.83579524D-03 -0.52557048D-03 -0.83259194D-04  0.25008623D-02
  0.15726093D-02  0.24912774D-03  0.47747301D-02  0.30024784D-02  0.47564303D-03
  0.10246577D-05  0.99100430D-06  0.30885275D-06  0.85572436D-06 -0.11446005D-05
 -0.86384704D-06 -0.13359961D-06 -0.84011021D-07 -0.13308757D-07 -0.34632769D-06
 -0.21778015D-06 -0.34500034D-07 -0.32402997D-06 -0.20375874D-06 -0.32278808D-07
  0.76314749D-06  0.73808303D-06  0.23002824D-06 -0.10664002D-05  0.14263964D-05
  0.10765227D-05 -0.12115049D-05 -0.76182679D-06 -0.12068616D-06  0.51240966D-05
  0.32221695D-05  0.51044578D-06 -0.68806869D-05 -0.43267606D-05 -0.68543157D-06
 -0.12556784D-06 -0.12144375D-06 -0.37848712D-07 -0.10031070D-06  0.13417366D-06
  0.10126286D-06 -0.39589112D-06 -0.24894696D-06 -0.39437381D-07  0.49811342D-07
  0.31322708D-07  0.49620432D-08  0.78297236D-07  0.49235403D-07  0.77997150D-08
  0.43584387D-05  0.42152921D-05  0.13137224D-05  0.59806753D-05 -0.79996364D-05
 -0.60374449D-05 -0.31189759D-04 -0.19612957D-04 -0.31070220D-05 -0.86332870D-04
 -0.54288426D-04 -0.86001987D-05 -0.67328193D-04 -0.42337775D-04 -0.67070148D-05
  0.85543399D-08  0.82733851D-08  0.25784528D-08  0.84765904D-08 -0.11338124D-07
 -0.85570517D-08  0.26478685D-07  0.16650508D-07  0.26377202D-08  0.23598966D-07
  0.14839663D-07  0.23508520D-08  0.49317244D-07  0.31012006D-07  0.49128228D-08
  0.15734023D-02  0.15217262D-02  0.47425559D-03  0.10066051D-02 -0.13464157D-02
 -0.10161600D-02  0.31174276D-02  0.19603221D-02  0.31054796D-03  0.37847741D-02
  0.23799675D-02  0.37702684D-03  0.38974544D-03  0.24508239D-03  0.38825168D-04
  0.87185257D-06  0.84321785D-06  0.26279417D-06  0.13916767D-05  0.13459691D-05
  0.41947979D-06 -0.81797711D-06 -0.79111185D-06 -0.24655501D-06 -0.46603420D-06
 -0.45072799D-06 -0.14047223D-06 -0.42797462D-07 -0.41391842D-07 -0.12900029D-07
 -0.44454095D-04 -0.42994065D-04 -0.13399372D-04  0.82792890D-04  0.80073679D-04
  0.24955468D-04  0.48310947D-07  0.46724244D-07  0.14561906D-07  0.62231908D-08
  0.60187992D-08  0.18757968D-08 -0.89559603D-09 -0.86618149D-09 -0.26995094D-09
 -0.31120159D-04 -0.30098063D-04 -0.93802515D-05  0.49666549D-04  0.48035324D-04
  0.14970512D-04 -0.21727895D-02 -0.21014274D-02 -0.65492314D-03 -0.21718684D-02
 -0.21005366D-02 -0.65464550D-03
MO    4     MO 0.0        OCC NO =    2.0000000  ORB. ENERGY =  -14.141309
  0.62985599D-07  0.60916929D-07  0.18985146D-07  0.12513900D-07 -0.16738352D-07
 -0.12632684D-07  0.11494430D-06  0.72280058D-07  0.11450376D-07  0.24308253D-07
  0.15285682D-07  0.24215089D-08  0.69406253D-07  0.43644514D-07  0.69140243D-08
  0.23703062D-08  0.22924569D-08  0.71445870D-09  0.54501685D-09 -0.72900407D-09
 -0.55019024D-09 -0.64599592D-08 -0.40621957D-08 -0.64352004D-09  0.12288796D-08
  0.77275244D-09  0.12241697D-09  0.11670803D-08  0.73389140D-09  0.11626073D-09
 -0.81339518D-06 -0.78668041D-06 -0.24517392D-06  0.12232628D-10 -0.16362128D-10
 -0.12348742D-10  0.19965256D-06  0.12554689D-06  0.19888737D-07  0.49642153D-07
  0.31216318D-07  0.49451893D-08  0.13283616D-07  0.83530943D-08  0.13232705D-08
  0.22495823D-02  0.21756980D-02  0.67807004D-03 -0.98097307D-04  0.13121307D-03
  0.99028464D-04 -0.27045036D-03 -0.17006644D-03 -0.26941382D-04  0.59392497D-03
  0.37347596D-03  0.59164867D-04 -0.16227853D-03 -0.10204509D-03 -0.16165657D-04
  0.34287336D+01  0.33161218D+01  0.10334903D+01 -0.69275274D-02  0.92661276D-02
  0.69932847D-02  0.19241477D-02  0.12099557D-02  0.19167731D-03  0.11340234D-03
  0.71310435D-04  0.11296771D-04  0.56620067D-02  0.35604218D-02  0.56403063D-03
 -0.10214531D-01 -0.98790500D-02 -0.30788684D-02 -0.52057190D-04  0.69630697D-04
  0.52551326D-04 -0.12480167D-03 -0.78478642D-04 -0.12432335D-04  0.37377867D-03
  0.23504206D-03  0.37234611D-04 -0.26044868D-04 -0.16377712D-04 -0.25945047D-05
  0.15049668D-05  0.14555384D-05  0.45362774D-06  0.82654758D-06 -0.11055742D-05
 -0.83439331D-06  0.98055483D-06  0.61659919D-06  0.97679671D-07 -0.34860487D-05
 -0.21921209D-05 -0.34726879D-06  0.70248355D-06  0.44174051D-06  0.69979118D-07
  0.48372184D-05  0.46783470D-05  0.14580364D-05  0.38291055D-05 -0.51217380D-05
 -0.38654521D-05  0.15229351D-04  0.95766249D-05  0.15170983D-05  0.24888057D-05
  0.15650278D-05  0.24792670D-06 -0.97924834D-06 -0.61577763D-06 -0.97549523D-07
 -0.15420693D-07 -0.14914223D-07 -0.46481120D-08 -0.36792840D-07  0.49213396D-07
  0.37142084D-07 -0.13498186D-06 -0.84880213D-07 -0.13446452D-07  0.17372201D-06
  0.10924106D-06  0.17305619D-07 -0.20268963D-06 -0.12745668D-06 -0.20191279D-07
  0.24602635D-04  0.23794598D-04  0.74157368D-05  0.73831951D-05 -0.98756199D-05
 -0.74532776D-05  0.10212594D-03  0.64219530D-04  0.10173452D-04  0.91157115D-05
  0.57322040D-05  0.90807742D-06  0.95021928D-05  0.59752338D-05  0.94657743D-06
  0.54077904D-07  0.52301794D-07  0.16300185D-07  0.21115464D-07 -0.28243639D-07
 -0.21315895D-07  0.12957881D-06  0.81482634D-07  0.12908218D-07  0.11054960D-08
  0.69516558D-09  0.11012591D-09  0.16599168D-07  0.10438002D-07  0.16535549D-08
  0.15878382D-02  0.15356879D-02  0.47860686D-03  0.10086989D-02 -0.13492162D-02
 -0.10182736D-02  0.20029392D-02  0.12595019D-02  0.19952626D-03 -0.42122805D-02
 -0.26487950D-02 -0.41961363D-03  0.12854144D-02  0.80830306D-03  0.12804878D-03
  0.27987882D-05  0.27068661D-05  0.84361194D-06  0.11618923D-06  0.11237316D-06
  0.35021806D-07  0.55710181D-06  0.53880462D-06  0.16792186D-06  0.24508105D-06
  0.23703172D-06  0.73872435D-07 -0.58721745D-07 -0.56793115D-07 -0.17699933D-07
 -0.10802389D-05 -0.10447601D-05 -0.32560607D-06 -0.49507590D-06 -0.47881585D-06
 -0.14922599D-06 -0.49700338D-07 -0.48068003D-07 -0.14980697D-07 -0.67084573D-08
 -0.64881279D-08 -0.20220661D-08  0.43644813D-08  0.42211363D-08  0.13155438D-08
 -0.21660299D-02 -0.20948898D-02 -0.65288566D-03 -0.21552075D-02 -0.20844228D-02
 -0.64962355D-03 -0.21536804D-04 -0.20829459D-04 -0.64916325D-05 -0.45134593D-05
 -0.43652214D-05 -0.13604488D-05
MO    5     MO 0.0        OCC NO =    2.0000000  ORB. ENERGY =  -14.101280
  0.24483811D-04  0.23679676D-04  0.73799206D-05  0.35019213D-05 -0.46841027D-05
 -0.35351622D-05  0.39107097D-04  0.24591592D-04  0.38957213D-05  0.48900041D-04
  0.30749658D-04  0.48712624D-05  0.79101256D-04  0.49740992D-04  0.78798089D-05
 -0.16214704D-03 -0.15682155D-03 -0.48874429D-04 -0.32258850D-04  0.43148818D-04
  0.32565056D-04  0.36289814D-04  0.22820009D-04  0.36150728D-05 -0.36636926D-03
 -0.23038282D-03 -0.36496510D-04  0.71737590D-04  0.45110522D-04  0.71462645D-05
  0.34290106D+01  0.33163898D+01  0.10335738D+01 -0.67819152D-02  0.90713594D-02
  0.68462903D-02  0.32314028D-02  0.20319928D-02  0.32190180D-03  0.53463372D-02
  0.33619203D-02  0.53258466D-03  0.24448216D-02  0.15373694D-02  0.24354514D-03
  0.69430329D-04  0.67149991D-04  0.20927719D-04 -0.75116015D-06  0.10047374D-05
  0.75829029D-06  0.31095443D-05  0.19553649D-05  0.30976265D-06 -0.47385761D-06
 -0.29797438D-06 -0.47204148D-07 -0.25308919D-05 -0.15914927D-05 -0.25211919D-06
  0.81944542D-06  0.79253194D-06  0.24699759D-06  0.68328148D-08 -0.91394418D-08
 -0.68976731D-08 -0.39902472D-07 -0.25091745D-07 -0.39749540D-08 -0.78269024D-07
 -0.49217663D-07 -0.77969047D-08 -0.65278820D-07 -0.41049074D-07 -0.65028629D-08
  0.37191536D-06  0.35970034D-06  0.11210289D-06 -0.27033702D-08  0.36159761D-08
  0.27290311D-08 -0.71696472D-07 -0.45084666D-07 -0.71421685D-08  0.41752112D-07
  0.26254849D-07  0.41592091D-08  0.13025202D-07  0.81905968D-08  0.12975281D-08
 -0.19231831D-04 -0.18600190D-04 -0.57968668D-05 -0.46038409D-04  0.61580091D-04
  0.46475414D-04  0.11926997D-03  0.75000155D-04  0.11881285D-04 -0.79835150D-04
 -0.50202484D-04 -0.79529170D-05  0.23520646D-04  0.14790413D-04  0.23430499D-05
 -0.23254325D-04 -0.22490570D-04 -0.70093284D-05 -0.94135266D-05  0.12591352D-04
  0.95028814D-05  0.41739182D-04  0.26246718D-04  0.41579210D-05 -0.21962926D-04
 -0.13810877D-04 -0.21878749D-05  0.38229449D-04  0.24039704D-04  0.38082929D-05
  0.15863246D-02  0.15342240D-02  0.47815062D-03  0.92153574D-03 -0.12326285D-02
 -0.93028312D-03 -0.20612644D-02 -0.12961784D-02 -0.20533643D-03  0.37388269D-02
  0.23510747D-02  0.37244973D-03 -0.11187941D-02 -0.70352772D-03 -0.11145061D-03
 -0.47747016D-06 -0.46178835D-06 -0.14391926D-06 -0.49081223D-06  0.65650101D-06
  0.49547111D-06  0.38551085D-05  0.24241957D-05  0.38403332D-06 -0.26304304D-05
 -0.16540852D-05 -0.26203489D-06 -0.78737343D-05 -0.49512154D-05 -0.78435570D-06
 -0.75899657D-04 -0.73406844D-04 -0.22877707D-04 -0.72061696D-04  0.96388340D-04
  0.72745718D-04  0.77636633D-04  0.48819998D-04  0.77339079D-05 -0.33434666D-03
 -0.21024615D-03 -0.33306523D-04  0.11797022D-04  0.74182843D-05  0.11751809D-05
  0.28505910D-07  0.27569675D-07  0.85922634D-08  0.85985286D-08 -0.11501227D-07
 -0.86801474D-08 -0.72087402D-07 -0.45330493D-07 -0.71811117D-08  0.48456081D-07
  0.30470484D-07  0.48270366D-08  0.37104013D-06  0.23331999D-06  0.36961806D-07
 -0.30190269D-04 -0.29198713D-04 -0.90999636D-05 -0.25157931D-04 -0.24331656D-04
 -0.75831143D-05 -0.32840086D-04 -0.31761502D-04 -0.98986728D-05  0.17911571D-04
  0.17323292D-04  0.53989134D-05  0.12396437D-03  0.11989294D-03  0.37365393D-04
  0.53959428D-06  0.52187209D-06  0.16264474D-06  0.67042145D-06  0.64840244D-06
  0.20207872D-06 -0.21508346D-02 -0.20801936D-02 -0.64830548D-03 -0.21543987D-02
 -0.20836407D-02 -0.64937978D-03 -0.10594492D-05 -0.10246531D-05 -0.31933963D-06
  0.40523721D-07  0.39192778D-07  0.12214677D-07 -0.31399656D-08 -0.30368380D-08
 -0.94644976D-09 -0.74109224D-08 -0.71675215D-08 -0.22338034D-08 -0.21418902D-07
 -0.20715429D-07 -0.64560945D-08
MO    6     MO 0.0        OCC NO =    2.0000000  ORB. ENERGY =  -14.069878
 -0.24461752D-05 -0.23658342D-05 -0.73732717D-06 -0.33519868D-06  0.44835532D-06
  0.33838045D-06 -0.71037010D-05 -0.44669978D-05 -0.70764751D-06 -0.13190915D-05
 -0.82948011D-06 -0.13140359D-06 -0.44946689D-05 -0.28263684D-05 -0.44774425D-06
 -0.58010162D-06 -0.56104903D-06 -0.17485448D-06 -0.16343209D-06  0.21860363D-06
  0.16498342D-06  0.53959894D-07  0.33931430D-07  0.53753085D-08 -0.55866794D-06
 -0.35130539D-06 -0.55652677D-07 -0.17917288D-06 -0.11266871D-06 -0.17848617D-07
 -0.73462716D-04 -0.71049941D-04 -0.22143163D-04 -0.43474856D-06  0.58151132D-06
  0.43887526D-06 -0.73879385D-05 -0.46457340D-05 -0.73596231D-06  0.68682436D-06
  0.43189359D-06  0.68419200D-07 -0.22288834D-05 -0.14015817D-05 -0.22203409D-06
  0.34295839D+01  0.33169443D+01  0.10337466D+01 -0.66040623D-02  0.88334669D-02
  0.66667492D-02 -0.61405108D-02 -0.38613179D-02 -0.61169764D-03 -0.46693553D-02
 -0.29362159D-02 -0.46514593D-03 -0.85001477D-03 -0.53451210D-03 -0.84675696D-04
 -0.25635030D-02 -0.24793085D-02 -0.77269218D-03 -0.96995434D-04  0.12973923D-03
  0.97916132D-04  0.54910700D-03  0.34529321D-03  0.54700246D-04  0.97835842D-04
  0.61521803D-04  0.97460872D-05  0.11878851D-03  0.74697403D-04  0.11833324D-04
 -0.17288161D-02 -0.16720356D-02 -0.52110047D-03 -0.49457556D-04  0.66153476D-04
  0.49927016D-04  0.54774965D-03  0.34443968D-03  0.54565032D-04 -0.14726926D-03
 -0.92606860D-04 -0.14670482D-04  0.10062292D-03  0.63274392D-04  0.10023727D-04
 -0.46630301D-04 -0.45098797D-04 -0.14055325D-04 -0.33148422D-04  0.44338692D-04
  0.33463073D-04 -0.93967141D-05 -0.59089060D-05 -0.93606998D-06  0.92485026D-04
  0.58157066D-04  0.92130564D-05 -0.72004839D-04 -0.45278575D-04 -0.71728870D-05
 -0.20485296D-04 -0.19812486D-04 -0.61746866D-05 -0.51409483D-04  0.68764336D-04
  0.51897470D-04 -0.10572926D-03 -0.66485398D-04 -0.10532404D-04  0.85287355D-04
  0.53630977D-04  0.84960479D-05  0.27447637D-04  0.17259811D-04  0.27342440D-05
  0.40622544D-05  0.39288356D-05  0.12244465D-05  0.33955266D-05 -0.45417912D-05
 -0.34277576D-05  0.11148805D-04  0.70106676D-05  0.11106075D-05  0.63941214D-05
  0.40207951D-05  0.63696150D-06  0.68247452D-05  0.42915829D-05  0.67985884D-06
  0.16134465D-02  0.15604552D-02  0.48632573D-03  0.93389564D-03 -0.12491609D-02
 -0.94276034D-03  0.17444705D-02  0.10969699D-02  0.17377845D-03 -0.40805393D-02
 -0.25659526D-02 -0.40649001D-03  0.64041159D-03  0.40270799D-03  0.63795712D-04
 -0.28911510D-05 -0.27961954D-05 -0.87145198D-06 -0.10174776D-05  0.13609585D-05
  0.10271357D-05 -0.80831853D-05 -0.50829238D-05 -0.80522053D-06  0.11309191D-05
  0.71115229D-06  0.11265847D-06 -0.25780739D-06 -0.16211620D-06 -0.25681930D-07
  0.17382215D-02  0.16811322D-02  0.52393546D-03  0.14547345D-02 -0.19458249D-02
 -0.14685431D-02 -0.60961104D-02 -0.38333978D-02 -0.60727461D-03  0.13172606D-03
  0.82832881D-04  0.13122120D-04 -0.11471245D-02 -0.72134266D-03 -0.11427280D-03
 -0.13391751D-03 -0.12951918D-03 -0.40365471D-04 -0.55918879D-05 -0.54082305D-05
 -0.16855092D-05 -0.32990639D-04 -0.31907110D-04 -0.99440525D-05 -0.39822080D-04
 -0.38514182D-04 -0.12003188D-04  0.23034216D-05  0.22277691D-05  0.69429831D-06
  0.80862374D-04  0.78206568D-04  0.24373571D-04  0.56097033D-04  0.54254608D-04
  0.16908792D-04  0.19147701D-05  0.18518823D-05  0.57715082D-06  0.18128895D-06
  0.17533478D-06  0.54644193D-07  0.34546153D-06  0.33411535D-06  0.10412916D-06
 -0.13183348D-03 -0.12750360D-03 -0.39737304D-04  0.20136492D-05  0.19475139D-05
  0.60695501D-06 -0.35848858D-05 -0.34671454D-05 -0.10805578D-05  0.95679618D-05
  0.92537161D-05  0.28839791D-05
MO    7     MO 0.0        OCC NO =    2.0000000  ORB. ENERGY =  -10.094756
  0.26222975D-02  0.25361720D-02  0.79041404D-03  0.12888271D-02 -0.17239103D-02
 -0.13010608D-02 -0.11437865D-02 -0.71924366D-03 -0.11394028D-03  0.61056138D-02
  0.38393738D-02  0.60822132D-03 -0.18325503D-02 -0.11523568D-02 -0.18255268D-03
  0.23513018D-02  0.22740768D-02  0.70873040D-03  0.18081650D-02 -0.24185667D-02