 opt aspartic b3lyp
GAUSSIAN             35 MOL ORBITALS    156 PRIMITIVES       16 NUCLEI
  O    1    (CENTRE  1)  -0.42407904 -3.08046172 -1.31554982  CHARGE =  8.0
  O    2    (CENTRE  2)   3.97900790 -1.00430930  2.08901340  CHARGE =  8.0
  O    3    (CENTRE  3)  -4.16569010 -2.23266960  0.94591265  CHARGE =  8.0
  O    4    (CENTRE  4)   4.35934032  0.75474009 -1.96857998  CHARGE =  8.0
  N    5    (CENTRE  5)  -3.75967582  3.14196287 -0.00963686  CHARGE =  7.0
  C    6    (CENTRE  6)  -1.56833890  1.41620528 -0.69595762  CHARGE =  6.0
  C    7    (CENTRE  7)   0.81068418  2.16164201  0.91852370  CHARGE =  6.0
  C    8    (CENTRE  8)  -2.26900165 -1.45456976 -0.23698812  CHARGE =  6.0
  C    9    (CENTRE  9)   3.20757177  0.63172986  0.09284183  CHARGE =  6.0
  H   10    (CENTRE 10)  -1.10821884  1.68798703 -2.72167544  CHARGE =  1.0
  H   11    (CENTRE 11)   0.44379592  1.82580880  2.94323669  CHARGE =  1.0
  H   12    (CENTRE 12)   1.16868913  4.19807027  0.63640244  CHARGE =  1.0
  H   13    (CENTRE 13)  -4.54148634  2.27545989  1.63014929  CHARGE =  1.0
  H   14    (CENTRE 14)  -5.16418193  2.71591778 -1.38183332  CHARGE =  1.0
  H   15    (CENTRE 15)  -1.08518262 -4.84320153 -0.82463550  CHARGE =  1.0
  H   16    (CENTRE 16)   5.53019041 -1.88222249  1.30892519  CHARGE =  1.0
CENTRE ASSIGNMENTS    1  1  1  1  1  1  1  1  1  1  1  1  1  1  1  2  2  2  2  2
CENTRE ASSIGNMENTS    2  2  2  2  2  2  2  2  2  2  3  3  3  3  3  3  3  3  3  3
CENTRE ASSIGNMENTS    3  3  3  3  3  4  4  4  4  4  4  4  4  4  4  4  4  4  4  4
CENTRE ASSIGNMENTS    5  5  5  5  5  5  5  5  5  5  5  5  5  5  5  6  6  6  6  6
CENTRE ASSIGNMENTS    6  6  6  6  6  6  6  6  6  6  7  7  7  7  7  7  7  7  7  7
CENTRE ASSIGNMENTS    7  7  7  7  7  8  8  8  8  8  8  8  8  8  8  8  8  8  8  8
CENTRE ASSIGNMENTS    9  9  9  9  9  9  9  9  9  9  9  9  9  9  9 10 10 10 11 11
CENTRE ASSIGNMENTS   11 12 12 12 13 13 13 14 14 14 15 15 15 16 16 16
TYPE ASSIGNMENTS      1  1  1  1  1  1  2  2  2  3  3  3  4  4  4  1  1  1  1  1
TYPE ASSIGNMENTS      1  2  2  2  3  3  3  4  4  4  1  1  1  1  1  1  2  2  2  3
TYPE ASSIGNMENTS      3  3  4  4  4  1  1  1  1  1  1  2  2  2  3  3  3  4  4  4
TYPE ASSIGNMENTS      1  1  1  1  1  1  2  2  2  3  3  3  4  4  4  1  1  1  1  1
TYPE ASSIGNMENTS      1  2  2  2  3  3  3  4  4  4  1  1  1  1  1  1  2  2  2  3
TYPE ASSIGNMENTS      3  3  4  4  4  1  1  1  1  1  1  2  2  2  3  3  3  4  4  4
TYPE ASSIGNMENTS      1  1  1  1  1  1  2  2  2  3  3  3  4  4  4  1  1  1  1  1
TYPE ASSIGNMENTS      1  1  1  1  1  1  1  1  1  1  1  1  1  1  1  1
EXPONENTS  0.1307093D+03 0.2380887D+02 0.6443608D+01 0.5033151D+01 0.1169596D+01
EXPONENTS  0.3803890D+00 0.5033151D+01 0.1169596D+01 0.3803890D+00 0.5033151D+01
EXPONENTS  0.1169596D+01 0.3803890D+00 0.5033151D+01 0.1169596D+01 0.3803890D+00
EXPONENTS  0.1307093D+03 0.2380887D+02 0.6443608D+01 0.5033151D+01 0.1169596D+01
EXPONENTS  0.3803890D+00 0.5033151D+01 0.1169596D+01 0.3803890D+00 0.5033151D+01
EXPONENTS  0.1169596D+01 0.3803890D+00 0.5033151D+01 0.1169596D+01 0.3803890D+00
EXPONENTS  0.1307093D+03 0.2380887D+02 0.6443608D+01 0.5033151D+01 0.1169596D+01
EXPONENTS  0.3803890D+00 0.5033151D+01 0.1169596D+01 0.3803890D+00 0.5033151D+01
EXPONENTS  0.1169596D+01 0.3803890D+00 0.5033151D+01 0.1169596D+01 0.3803890D+00
EXPONENTS  0.1307093D+03 0.2380887D+02 0.6443608D+01 0.5033151D+01 0.1169596D+01
EXPONENTS  0.3803890D+00 0.5033151D+01 0.1169596D+01 0.3803890D+00 0.5033151D+01
EXPONENTS  0.1169596D+01 0.3803890D+00 0.5033151D+01 0.1169596D+01 0.3803890D+00
EXPONENTS  0.9910617D+02 0.1805231D+02 0.4885660D+01 0.3780456D+01 0.8784966D+00
EXPONENTS  0.2857144D+00 0.3780456D+01 0.8784966D+00 0.2857144D+00 0.3780456D+01
EXPONENTS  0.8784966D+00 0.2857144D+00 0.3780456D+01 0.8784966D+00 0.2857144D+00
EXPONENTS  0.7161684D+02 0.1304510D+02 0.3530512D+01 0.2941249D+01 0.6834831D+00
EXPONENTS  0.2222899D+00 0.2941249D+01 0.6834831D+00 0.2222899D+00 0.2941249D+01
EXPONENTS  0.6834831D+00 0.2222899D+00 0.2941249D+01 0.6834831D+00 0.2222899D+00
EXPONENTS  0.7161684D+02 0.1304510D+02 0.3530512D+01 0.2941249D+01 0.6834831D+00
EXPONENTS  0.2222899D+00 0.2941249D+01 0.6834831D+00 0.2222899D+00 0.2941249D+01
EXPONENTS  0.6834831D+00 0.2222899D+00 0.2941249D+01 0.6834831D+00 0.2222899D+00
EXPONENTS  0.7161684D+02 0.1304510D+02 0.3530512D+01 0.2941249D+01 0.6834831D+00
EXPONENTS  0.2222899D+00 0.2941249D+01 0.6834831D+00 0.2222899D+00 0.2941249D+01
EXPONENTS  0.6834831D+00 0.2222899D+00 0.2941249D+01 0.6834831D+00 0.2222899D+00
EXPONENTS  0.7161684D+02 0.1304510D+02 0.3530512D+01 0.2941249D+01 0.6834831D+00
EXPONENTS  0.2222899D+00 0.2941249D+01 0.6834831D+00 0.2222899D+00 0.2941249D+01
EXPONENTS  0.6834831D+00 0.2222899D+00 0.2941249D+01 0.6834831D+00 0.2222899D+00
EXPONENTS  0.3425251D+01 0.6239137D+00 0.1688554D+00 0.3425251D+01 0.6239137D+00
EXPONENTS  0.1688554D+00 0.3425251D+01 0.6239137D+00 0.1688554D+00 0.3425251D+01
EXPONENTS  0.6239137D+00 0.1688554D+00 0.3425251D+01 0.6239137D+00 0.1688554D+00
EXPONENTS  0.3425251D+01 0.6239137D+00 0.1688554D+00 0.3425251D+01 0.6239137D+00
EXPONENTS  0.1688554D+00
MO    1     MO 0.0        OCC NO =    2.0000000  ORB. ENERGY =  -18.945505
  0.42244365D+01  0.40856910D+01  0.12733314D+01 -0.68569624D-02  0.91717411D-02
  0.69220498D-02 -0.58340492D-02 -0.36686067D-02 -0.58116893D-03 -0.13468553D-02
 -0.84693873D-03 -0.13416932D-03  0.37130493D-02  0.23348651D-02  0.36988185D-03
  0.28678659D-02  0.27736750D-02  0.86443335D-03 -0.16211216D-04  0.21683812D-04
  0.16365096D-04 -0.23586956D-04 -0.14832111D-04 -0.23496555D-05  0.65414895D-05
  0.41134642D-05  0.65164183D-06 -0.59304359D-04 -0.37292172D-04 -0.59077066D-05
  0.38564795D-02  0.37298190D-02  0.11624217D-02 -0.45747402D-04  0.61190846D-04
  0.46181644D-04  0.42549143D-03  0.26756043D-03  0.42386067D-04 -0.10193440D-02
 -0.64099086D-03 -0.10154372D-03 -0.22624337D-03 -0.14226790D-03 -0.22537626D-04
  0.57427577D-03  0.55541453D-03  0.17309845D-03 -0.14040516D-04  0.18780325D-04
  0.14173791D-04 -0.59897063D-04 -0.37664881D-04 -0.59667499D-05 -0.40722386D-04
 -0.25607329D-04 -0.40566312D-05  0.48114237D-04  0.30255523D-04  0.47929832D-05
  0.59295378D-05  0.57347908D-05  0.17872838D-05 -0.25409006D-05  0.33986599D-05
  0.25650193D-05  0.12010490D-04  0.75525185D-05  0.11964458D-05  0.69262665D-04
  0.43554223D-04  0.68997206D-05  0.10605385D-04  0.66689508D-05  0.10564738D-05
 -0.64339885D-04 -0.62226736D-04 -0.19393356D-04 -0.50539579D-04  0.67600770D-04
  0.51019309D-04  0.12899199D-03  0.81113627D-04  0.12849761D-04 -0.23398841D-03
 -0.14713819D-03 -0.23309162D-04 -0.12787012D-03 -0.80408163D-04 -0.12738004D-04
 -0.28084302D-04 -0.27161914D-04 -0.84651822D-05 -0.80306002D-05  0.10741577D-04
  0.81068281D-05 -0.63870573D-05 -0.40163530D-05 -0.63625780D-06 -0.52799752D-04
 -0.33201901D-04 -0.52597390D-05  0.10808644D-04  0.67967655D-05  0.10767218D-05
  0.15993484D-02  0.15468201D-02  0.48207626D-03  0.77012537D-03 -0.10301049D-02
 -0.77743553D-03 -0.31127723D-02 -0.19573947D-02 -0.31008421D-03  0.25382504D-02
  0.15961200D-02  0.25285222D-03  0.18276643D-02  0.11492843D-02  0.18206595D-03
  0.83586905D-04  0.80841615D-04  0.25194800D-04  0.27305937D-04 -0.36523897D-04
 -0.27565130D-04  0.84536303D-04  0.53158696D-04  0.84212305D-05  0.12555245D-03
  0.78950747D-04  0.12507125D-04  0.59954655D-04  0.37701096D-04  0.59724870D-05
 -0.34170708D-04 -0.33048422D-04 -0.10299749D-04 -0.15017517D-05 -0.14524288D-05
 -0.45265863D-06  0.33326060D-05  0.32231514D-05  0.10045155D-05 -0.23431068D-04
 -0.22661509D-04 -0.70626024D-05 -0.28713732D-05 -0.27770672D-05 -0.86549053D-06
 -0.17558252D-02 -0.16981577D-02 -0.52924157D-03 -0.58715342D-05 -0.56786923D-05
 -0.17698003D-05
MO    2     MO 0.0        OCC NO =    2.0000000  ORB. ENERGY =  -18.930883
 -0.29285181D-02 -0.28323352D-02 -0.88271517D-03 -0.27407695D-05  0.36660007D-05
  0.27667854D-05  0.71497598D-04  0.44959608D-04  0.71223573D-05  0.36685551D-04
  0.23068859D-04  0.36544948D-05  0.17083945D-04  0.10742843D-04  0.17018469D-05
  0.42244516D+01  0.40857057D+01  0.12733360D+01 -0.68480385D-02  0.91598048D-02
  0.69130413D-02  0.26522488D-02  0.16678052D-02  0.26420836D-03  0.10611571D-02
  0.66728406D-03  0.10570901D-03 -0.64208786D-02 -0.40376208D-02 -0.63962697D-03
  0.32506811D-04  0.31439173D-04  0.97982169D-05 -0.93539724D-06  0.12511694D-05
  0.94427619D-06  0.14822099D-05  0.93205336D-06  0.14765291D-06  0.20205648D-05
  0.12705854D-05  0.20128207D-06 -0.38635776D-05 -0.24295213D-05 -0.38487699D-06
  0.42606085D-02  0.41206751D-02  0.12842344D-02 -0.54724136D-04  0.73197953D-04
  0.55243587D-04  0.66034594D-03  0.41524325D-03  0.65781507D-04 -0.78549756D-03
 -0.49394194D-03 -0.78248703D-04  0.49598013D-03  0.31188561D-03  0.49407921D-04
 -0.53840844D-06 -0.52072520D-06 -0.16228730D-06  0.16416956D-06 -0.21959005D-06
 -0.16572789D-06  0.59590141D-05  0.37471880D-05  0.59361753D-06  0.48692697D-05
  0.30619274D-05  0.48506075D-06 -0.39266981D-06 -0.24692132D-06 -0.39116485D-07
 -0.70167025D-05 -0.67862492D-05 -0.21149775D-05 -0.23360638D-05  0.31246740D-05
  0.23582381D-05 -0.17921645D-05 -0.11269611D-05 -0.17852957D-06  0.49443587D-05
  0.31091454D-05  0.49254088D-06  0.50011061D-05  0.31448297D-05  0.49819387D-06
 -0.87864379D-04 -0.84978602D-04 -0.26484118D-04 -0.69564911D-04  0.93048689D-04
  0.70225234D-04  0.14466994D-03  0.90972338D-04  0.14411547D-04 -0.20678595D-03
 -0.13003255D-03 -0.20599341D-04  0.25117395D-03  0.15794492D-03  0.25021129D-04
 -0.10020308D-04 -0.96912056D-05 -0.30203255D-05 -0.27191331D-05  0.36370602D-05
  0.27449436D-05  0.20133203D-04  0.12660299D-04  0.20056040D-05  0.21657340D-05
  0.13618717D-05  0.21574335D-06 -0.20950855D-05 -0.13174460D-05 -0.20870557D-06
  0.16053790D-02  0.15526527D-02  0.48389402D-03  0.76697324D-03 -0.10258887D-02
 -0.77425348D-03 -0.11229776D-02 -0.70615844D-03 -0.11186736D-03  0.25949244D-02
  0.16317581D-02  0.25849790D-03 -0.33313052D-02 -0.20948141D-02 -0.33185374D-03
 -0.88740108D-05 -0.85825570D-05 -0.26748081D-05 -0.93010438D-04 -0.89955646D-04
 -0.28035246D-04 -0.49442988D-05 -0.47819106D-05 -0.14903127D-05  0.15827691D-05
  0.15307854D-05  0.47707893D-06  0.60117753D-06  0.58143273D-06  0.18120719D-06
  0.14903694D-05  0.14414204D-05  0.44922778D-06 -0.17581800D-02 -0.17004351D-02
 -0.52995135D-03
MO    3     MO 0.0        OCC NO =    2.0000000  ORB. ENERGY =  -18.883696
 -0.41787293D-02 -0.40414851D-02 -0.12595544D-02 -0.55706666D-04  0.74512167D-04
  0.56235444D-04 -0.61582624D-03 -0.38724807D-03 -0.61346600D-04 -0.58995825D-03
 -0.37098158D-03 -0.58769715D-04  0.39688944D-03  0.24957473D-03  0.39536830D-04
 -0.37999010D-04 -0.36750988D-04 -0.11453678D-04 -0.53132912D-06  0.71069562D-06
  0.53637259D-06 -0.40030188D-05 -0.25172056D-05 -0.39876767D-06 -0.35113805D-06
 -0.22080503D-06 -0.34979226D-07 -0.44810840D-05 -0.28178259D-05 -0.44639096D-06
  0.42246709D+01  0.40859178D+01  0.12734021D+01 -0.68969018D-02  0.92251634D-02
  0.69623684D-02  0.78223165D-02  0.49188826D-02  0.77923364D-03  0.31907483D-02
  0.20064281D-02  0.31785193D-03 -0.48738326D-02 -0.30647967D-02 -0.48551529D-03
  0.34130888D-03  0.33009909D-03  0.10287747D-03 -0.18230284D-05  0.24384478D-05
  0.18403329D-05 -0.94514983D-05 -0.59433557D-05 -0.94152740D-06 -0.29212418D-05
 -0.18369553D-05 -0.29100458D-06  0.36322641D-05  0.22840651D-05  0.36183429D-06
 -0.45012516D-04 -0.43534146D-04 -0.13567692D-04 -0.19599180D-04  0.26215487D-04
  0.19785219D-04 -0.15875040D-03 -0.99826510D-04 -0.15814196D-04 -0.58518323D-04
 -0.36797892D-04 -0.58294043D-05  0.14201314D-03  0.89301672D-04  0.14146885D-04
 -0.58175588D-04 -0.56264896D-04 -0.17535311D-04 -0.22601403D-04  0.30231202D-04
  0.22815939D-04 -0.38848392D-03 -0.24428912D-03 -0.38699500D-04  0.30291458D-04
  0.19048082D-04  0.30175362D-05  0.23286445D-03  0.14643142D-03  0.23197196D-04
 -0.10727414D-04 -0.10375088D-04 -0.32334617D-05 -0.28347002D-05  0.37916405D-05
  0.28616077D-05 -0.12734318D-04 -0.80076806D-05 -0.12685511D-05 -0.14560893D-04
 -0.91562801D-05 -0.14505086D-05 -0.25532188D-04 -0.16055325D-04 -0.25434332D-05
  0.18408451D-02  0.17803853D-02  0.55486832D-03  0.12618452D-02 -0.16878200D-02
 -0.12738229D-02  0.50750702D-02  0.31913403D-02  0.50556192D-03  0.21044789D-02
  0.13233528D-02  0.20964132D-03 -0.31659807D-02 -0.19908536D-02 -0.31538467D-03
  0.13647463D-04  0.13199232D-04  0.41136241D-05  0.47645439D-05 -0.63729624D-05
 -0.48097698D-05  0.23214515D-04  0.14597910D-04  0.23125542D-05  0.12259643D-04
  0.77091924D-05  0.12212656D-05  0.74967922D-05  0.47141841D-05  0.74680597D-06
  0.96715048D-05  0.93538583D-05  0.29151891D-05  0.12437671D-04  0.12029174D-04
  0.37489681D-05  0.13582143D-05  0.13136058D-05  0.40939354D-06 -0.99091100D-04
 -0.95836598D-04 -0.29868082D-04 -0.69720645D-05 -0.67430772D-05 -0.21015226D-05
 -0.33380121D-04 -0.32283800D-04 -0.10061450D-04  0.16068551D-06  0.15540803D-06
  0.48433894D-07
MO    4     MO 0.0        OCC NO =    2.0000000  ORB. ENERGY =  -18.870723
 -0.63395508D-03 -0.61313375D-03 -0.19108701D-03 -0.64797257D-05  0.86671566D-05
  0.65412324D-05  0.78513410D-04  0.49371339D-04  0.78212496D-05  0.61998313D-04
  0.38986203D-04  0.61760695D-05  0.77351684D-06  0.48640815D-06  0.77055222D-07
 -0.46108673D-02 -0.44594302D-02 -0.13898096D-02 -0.63261421D-04  0.84617261D-04
  0.63861909D-04  0.62181010D-03  0.39101088D-03  0.61942692D-04 -0.14587493D-03
 -0.91730072D-04 -0.14531585D-04 -0.69962744D-03 -0.43994451D-03 -0.69694602D-04
 -0.34805451D-03 -0.33662317D-03 -0.10491074D-03 -0.97339690D-06  0.13019970D-05
  0.98263655D-06  0.38481003D-05  0.24197887D-05  0.38333519D-06  0.56529919D-05
  0.35547530D-05  0.56313260D-06 -0.37429126D-05 -0.23536439D-05 -0.37285673D-06
  0.42246707D+01  0.40859176D+01  0.12734020D+01 -0.69009283D-02  0.92305490D-02
  0.69664331D-02 -0.47300446D-02 -0.29743790D-02 -0.47119160D-03 -0.55005008D-03
 -0.34588625D-03 -0.54794193D-04  0.85549833D-02  0.53796031D-02  0.85221951D-03
 -0.39246375D-05 -0.37957385D-05 -0.11829659D-05 -0.29170248D-05  0.39017563D-05
  0.29447137D-05  0.10929608D-04  0.68728306D-05  0.10887718D-05 -0.10171185D-04
 -0.63959138D-05 -0.10132202D-05 -0.23762624D-05 -0.14942576D-05 -0.23671551D-06
 -0.31180962D-04 -0.30156869D-04 -0.93985788D-05 -0.63493801D-05  0.84928088D-05
  0.64096495D-05  0.37392445D-04  0.23513373D-04  0.37249133D-05 -0.58907966D-04
 -0.37042910D-04 -0.58682192D-05 -0.35815570D-04 -0.22521792D-04 -0.35678302D-05
 -0.48612978D-04 -0.47016356D-04 -0.14652945D-04 -0.14741293D-04  0.19717670D-04
  0.14881220D-04  0.59662295D-04  0.37517252D-04  0.59433631D-05  0.18794018D-03
  0.11818183D-03  0.18721987D-04 -0.39531367D-03 -0.24858385D-03 -0.39379858D-04
 -0.50385046D-06 -0.48730223D-06 -0.15187082D-06  0.19771030D-05 -0.26445349D-05
 -0.19958700D-05  0.10204116D-04  0.64166220D-05  0.10165007D-05 -0.90100429D-05
 -0.56657568D-05 -0.89755107D-06 -0.22948550D-05 -0.14430664D-05 -0.22860596D-06
  0.18395166D-02  0.17791004D-02  0.55446787D-03  0.12644666D-02 -0.16913263D-02
 -0.12764692D-02 -0.31263541D-02 -0.19659354D-02 -0.31143719D-03 -0.30246729D-03
 -0.19019955D-03 -0.30130804D-04  0.55394936D-02  0.34833822D-02  0.55182627D-03
 -0.15804604D-04 -0.15285525D-04 -0.47638306D-05  0.79241392D-05  0.76638825D-05
  0.23884974D-05 -0.15451201D-04 -0.14943729D-04 -0.46573077D-05  0.99050092D-06
  0.95796937D-06  0.29855721D-06  0.26885269D-06  0.26002261D-06  0.81037691D-07
  0.35434497D-05  0.34270703D-05  0.10680681D-05 -0.39123005D-04 -0.37838068D-04
 -0.11792473D-04
MO    5     MO 0.0        OCC NO =    2.0000000  ORB. ENERGY =  -14.118014
  0.25993151D-04  0.25139444D-04  0.78348667D-05  0.35883439D-05 -0.47996998D-05
 -0.36224051D-05 -0.47501562D-04 -0.29870257D-04 -0.47319506D-05 -0.90603030D-04
 -0.56973617D-04 -0.90255781D-05  0.28465468D-04  0.17899850D-04  0.28356370D-05
 -0.87468069D-06 -0.84595309D-06 -0.26364663D-06 -0.23112053D-06  0.30914238D-06
  0.23331436D-06 -0.10630822D-04 -0.66849462D-05 -0.10590078D-05 -0.72721316D-05
 -0.45729115D-05 -0.72442601D-06 -0.53842675D-05 -0.33857719D-05 -0.53636315D-06
 -0.11090697D-03 -0.10726439D-03 -0.33429626D-04 -0.17030990D-04  0.22780324D-04
  0.17192651D-04 -0.15864887D-03 -0.99762666D-04 -0.15804082D-04  0.19774892D-03
  0.12434983D-03  0.19699102D-04  0.13109785D-03  0.82437844D-04  0.13059540D-04
 -0.80513861D-05 -0.77869501D-05 -0.24268522D-05 -0.42948250D-05  0.57446754D-05
  0.43355923D-05 -0.19017514D-04 -0.11958723D-04 -0.18944627D-05 -0.71356025D-05
 -0.44870583D-05 -0.71082542D-06  0.18755864D-04  0.11794190D-04  0.18683979D-05
  0.34289965D+01  0.33163761D+01  0.10335696D+01 -0.67918151D-02  0.90846014D-02
  0.68562842D-02 -0.19299712D-02 -0.12136177D-02 -0.19225743D-03 -0.63499386D-02
 -0.39930118D-02 -0.63256015D-03 -0.51738016D-03 -0.32534253D-03 -0.51539723D-04
  0.15871586D-02  0.15350307D-02  0.47840203D-03  0.92792289D-03 -0.12411718D-02
 -0.93673089D-03  0.34328474D-02  0.21586666D-02  0.34196906D-03 -0.26302543D-02
 -0.16539745D-02 -0.26201735D-03 -0.10363620D-02 -0.65169226D-03 -0.10323900D-03
 -0.23695250D-04 -0.22917014D-04 -0.71422322D-05 -0.51133731D-04  0.68395496D-04
  0.51619101D-04 -0.14935950D-03 -0.93921261D-04 -0.14878706D-04  0.46284773D-04
  0.29105107D-04  0.46107380D-05 -0.47912548D-04 -0.30128696D-04 -0.47728916D-05
 -0.77473682D-04 -0.74929172D-04 -0.23352150D-04 -0.69020098D-04  0.92319957D-04
  0.69675248D-04 -0.19509922D-03 -0.12268362D-03 -0.19435147D-04  0.26969461D-03
  0.16959121D-03  0.26866096D-04  0.75671195D-04  0.47584078D-04  0.75381175D-05
  0.37071117D-04  0.35853570D-04  0.11173992D-04  0.15800676D-04 -0.21134680D-04
 -0.15950658D-04  0.83748463D-04  0.52663281D-04  0.83427485D-05  0.12317830D-04
  0.77457818D-05  0.12270620D-05  0.44510434D-04  0.27989356D-04  0.44339842D-05
  0.11388022D-03  0.11013999D-03  0.34325824D-04  0.12309260D-04  0.11904981D-04
  0.37102625D-05 -0.45079821D-04 -0.43599240D-04 -0.13587979D-04 -0.21515472D-02
 -0.20808828D-02 -0.64852028D-03 -0.21537929D-02 -0.20830547D-02 -0.64919718D-03
 -0.14693723D-05 -0.14211129D-05 -0.44289881D-06 -0.28907294D-06 -0.27957876D-06
 -0.87132487D-07
MO    6     MO 0.0        OCC NO =    2.0000000  ORB. ENERGY =  -10.107621
  0.26223263D-02  0.25361998D-02  0.79042271D-03  0.12882854D-02 -0.17231857D-02
 -0.13005140D-02  0.41573880D-02  0.26142772D-02  0.41414543D-03 -0.43566194D-02
 -0.27395592D-02 -0.43399220D-03 -0.23937021D-02 -0.15052241D-02 -0.23845279D-03
 -0.33876763D-04 -0.32764131D-04 -0.10211148D-04 -0.15708631D-04  0.21011563D-04
  0.15857740D-04 -0.20546312D-04 -0.12920072D-04 -0.20467565D-05  0.56967833D-04
  0.35822902D-04  0.56749495D-05 -0.60413518D-04 -0.37989642D-04 -0.60181975D-05
  0.23343673D-02  0.22576984D-02  0.70362599D-03  0.18056572D-02 -0.24152124D-02
 -0.18227968D-02 -0.43375512D-02 -0.27275686D-02 -0.43209269D-03 -0.16707112D-02
 -0.10505881D-02 -0.16643080D-03  0.26867103D-02  0.16894755D-02  0.26764131D-03
 -0.15011745D-04 -0.14518706D-04 -0.45248466D-05 -0.74396647D-05  0.99511525D-05
  0.75102833D-05 -0.40346219D-04 -0.25370785D-04 -0.40191586D-05 -0.39217567D-04
 -0.24661059D-04 -0.39067260D-05  0.51876061D-05  0.32621059D-05  0.51677238D-06
 -0.16692241D-03 -0.16144009D-03 -0.50313825D-04 -0.11967004D-03  0.16006835D-03
  0.12080597D-03  0.31054962D-04  0.19528193D-04  0.30935939D-05 -0.18116805D-03
 -0.11392333D-03 -0.18047370D-04  0.75239746D-04  0.47312771D-04  0.74951379D-05
 -0.32574378D-01 -0.31504520D-01 -0.98185829D-02  0.11130365D-02 -0.14887762D-02
 -0.11236016D-02  0.12351603D-02  0.77670197D-03  0.12304264D-03  0.42497628D-02
  0.26723649D-02  0.42334749D-03 -0.77741215D-03 -0.48885762D-03 -0.77443261D-04
 -0.12132416D-02 -0.11733945D-02 -0.36569580D-03 -0.38636994D-04  0.51680100D-04
  0.39003743D-04 -0.25986060D-05 -0.16340732D-05 -0.25886464D-06  0.23468299D-03
  0.14757496D-03  0.23378353D-04 -0.25776130D-04 -0.16208722D-04 -0.25677339D-05
  0.26838448D+01  0.25956978D+01  0.80896564D+00 -0.60365353D-02  0.80743536D-02
  0.60938351D-02 -0.50929151D-03 -0.32025617D-03 -0.50733958D-04 -0.19539228D-03
 -0.12286791D-03 -0.19464341D-04  0.39915969D-03  0.25100233D-03  0.39762986D-04
 -0.12225049D-01 -0.11823535D-01 -0.36848794D-02  0.41058174D-04 -0.54918625D-04
 -0.41447905D-04  0.94974550D-04  0.59722546D-04  0.94610546D-05  0.12242120D-03
  0.76981733D-04  0.12195200D-04 -0.17539429D-04 -0.11029263D-04 -0.17472206D-05
 -0.52737730D-06 -0.51005636D-06 -0.15896229D-06 -0.70293740D-04 -0.67985045D-04
 -0.21187969D-04 -0.56982607D-04 -0.55111097D-04 -0.17175722D-04 -0.17515404D-03
 -0.16940136D-03 -0.52795006D-04 -0.76055600D-04 -0.73557666D-04 -0.22924711D-04
 -0.46912879D-03 -0.45372094D-03 -0.14140500D-03  0.91049306D-06  0.88058925D-06
  0.27444121D-06
MO    7     MO 0.0        OCC NO =    2.0000000  ORB. ENERGY =  -10.102193
  0.21286358D-03  0.20587239D-03  0.64161432D-04  0.40917407D-04 -0.54730337D-04
 -0.41305802D-04 -0.49982995D-03 -0.31430649D-03 -0.49791428D-04 -0.38325174D-03
 -0.24099898D-03 -0.38178287D-04 -0.95498494D-04 -0.60052016D-04 -0.95132483D-05
  0.26426004D-02  0.25558081D-02  0.79653375D-03  0.12856707D-02 -0.17196884D-02
 -0.12978745D-02  0.22915264D-02  0.14409733D-02  0.22827438D-03 -0.41319228D-02
 -0.25982639D-02 -0.41160866D-03  0.44763470D-02  0.28148471D-02  0.44591908D-03
  0.39305012D-04  0.38014096D-04  0.11847333D-04  0.23061514D-04 -0.30846638D-04
 -0.23280418D-04 -0.51066299D-04 -0.32111859D-04 -0.50870580D-05 -0.52716309D-04
 -0.33149430D-04 -0.52514266D-05  0.69867684D-04  0.43934675D-04  0.69599906D-05
  0.23068531D-02  0.22310879D-02  0.69533265D-03  0.17935592D-02 -0.23990303D-02
 -0.18105840D-02  0.25462091D-02  0.16011246D-02  0.25364504D-03  0.30130365D-03
  0.18946782D-03  0.30014886D-04 -0.46141406D-02 -0.29014954D-02 -0.45964562D-03
  0.74767708D-04  0.72312072D-04  0.22536514D-04  0.24492601D-04 -0.32760833D-04
 -0.24725089D-04 -0.12484968D-03 -0.78508831D-04 -0.12437118D-04  0.48807512D-04
  0.30691473D-04  0.48620450D-05 -0.15826034D-04 -0.99518347D-05 -0.15765378D-05
 -0.27976774D-02 -0.27057918D-02 -0.84327711D-03 -0.20041896D-04  0.26807654D-04
  0.20232137D-04 -0.10936773D-03 -0.68773361D-04 -0.10894856D-04  0.18961928D-03
  0.11923769D-03  0.18889253D-04  0.27564481D-04  0.17333285D-04  0.27458836D-05
 -0.18715112D-01 -0.18100442D-01 -0.56411171D-02  0.10934392D-02 -0.14625633D-02
 -0.11038183D-02 -0.37135304D-02 -0.23351675D-02 -0.36992977D-03  0.23195066D-02
  0.14585680D-02  0.23106167D-03  0.13755162D-02  0.86496147D-03  0.13702443D-03
  0.12313563D-01  0.11909142D-01  0.37115594D-02 -0.20316546D-04  0.27175022D-04
  0.20509394D-04 -0.19634202D-03 -0.12346513D-03 -0.19558952D-04  0.10315047D-04
  0.64863785D-05  0.10275513D-05  0.21068980D-04  0.13248740D-04  0.20988230D-05
  0.26840186D+01  0.25958659D+01  0.80901801D+00 -0.60365803D-02  0.80744138D-02
  0.60938806D-02  0.22296829D-03  0.14020844D-03  0.22211373D-04  0.41238217D-04
  0.25931698D-04  0.41080166D-05 -0.44641702D-03 -0.28071900D-03 -0.44470606D-04
 -0.71686700D-04 -0.69332255D-04 -0.21607836D-04  0.36319821D-05  0.35126950D-05
  0.10947536D-05 -0.19764922D-04 -0.19115772D-04 -0.59575513D-05 -0.42134553D-05
 -0.40750705D-05 -0.12700215D-05 -0.17158058D-05 -0.16594527D-05 -0.51717891D-06
 -0.27166218D-04 -0.26273983D-04 -0.81884529D-05 -0.46918744D-03 -0.45377766D-03
 -0.14142268D-03
MO    8     MO 0.0        OCC NO =    2.0000000  ORB. ENERGY =  -10.067017
 -0.46842350D-04 -0.45303882D-04 -0.14119241D-04 -0.55693649D-04  0.74494755D-04
  0.56222303D-04 -0.11489773D-03 -0.72250776D-04 -0.11445737D-04  0.12200998D-03
  0.76723152D-04  0.12154236D-04  0.23736933D-04  0.14926420D-04  0.23645957D-05
 -0.10847921D-04 -0.10491636D-04 -0.32697848D-05  0.89837081D-06 -0.12016435D-05
 -0.90689830D-06 -0.48379525D-04 -0.30422344D-04 -0.48194104D-05 -0.33359214D-04
 -0.20977169D-04 -0.33231360D-05 -0.30692992D-04 -0.19300577D-04 -0.30575357D-05
 -0.83630664D-04 -0.80883938D-04 -0.25207990D-04 -0.25293826D-04  0.33832536D-04
  0.25533920D-04 -0.57817350D-04 -0.36357101D-04 -0.57595757D-05  0.59558654D-03
  0.37452080D-03  0.59330387D-04  0.13883655D-04  0.87304146D-05  0.13830444D-05
 -0.68958617D-04 -0.66693772D-04 -0.20785536D-04 -0.20650895D-04  0.27622241D-04
  0.20846917D-04 -0.10633743D-03 -0.66867831D-04 -0.10592988D-04  0.11284953D-04
  0.70962810D-05  0.11241701D-05  0.35661182D-04  0.22424708D-04  0.35524505D-05
  0.26715280D-02  0.25837856D-02  0.80525312D-03  0.11531669D-02 -0.15424539D-02
 -0.11641129D-02 -0.45840039D-02 -0.28825446D-02 -0.45664350D-03  0.32975414D-02
  0.20735825D-02  0.32849031D-03  0.14200615D-02  0.89297276D-03  0.14146189D-03
  0.26815387D+01  0.25934675D+01  0.80827054D+00 -0.68877826D-02  0.92129657D-02
  0.69531627D-02  0.41960527D-03  0.26385905D-03  0.41799707D-04 -0.17206969D-04
 -0.10820204D-04 -0.17141021D-05 -0.41668798D-03 -0.26202459D-03 -0.41509097D-04
 -0.42696230D-01 -0.41293935D-01 -0.12869516D-01  0.12349484D-02 -0.16518432D-02
 -0.12466707D-02  0.38782217D-02  0.24387299D-02  0.38633579D-03  0.11721119D-02
  0.73705542D-03  0.11676196D-03  0.25943618D-02  0.16314043D-02  0.25844186D-03
  0.36670013D-01  0.35465641D-01  0.11053091D-01  0.10352638D-02 -0.13847490D-02
 -0.10450907D-02 -0.10743279D-02 -0.67556621D-03 -0.10702104D-03 -0.46413732D-02
 -0.29186200D-02 -0.46235845D-03  0.72275171D-03  0.45448567D-03  0.71998166D-04
  0.24755704D-02  0.23942640D-02  0.74618750D-03 -0.27518866D-04  0.36808706D-04
  0.27780080D-04 -0.89694163D-04 -0.56402096D-04 -0.89350397D-05  0.10343683D-03
  0.65043854D-04  0.10304039D-04  0.90745000D-04  0.57062891D-04  0.90397206D-05
 -0.25407595D-02 -0.24573120D-02 -0.76583680D-03  0.57474967D-04  0.55587286D-04
  0.17324129D-04  0.62584209D-04  0.60528722D-04  0.18864159D-04 -0.15621397D-03
 -0.15108335D-03 -0.47086081D-04 -0.13655495D-03 -0.13207000D-03 -0.41160451D-04
 -0.46206379D-04 -0.44688799D-04 -0.13927547D-04  0.18701698D-05  0.18087468D-05
  0.56370739D-06
MO    9     MO 0.0        OCC NO =    2.0000000  ORB. ENERGY =  -10.035838
 -0.58497087D-04 -0.56575836D-04 -0.17632217D-04 -0.19408190D-04  0.25960022D-04
  0.19592416D-04 -0.20672041D-04 -0.12999134D-04 -0.20592812D-05  0.97096417D-04
  0.61056833D-04  0.96724281D-05  0.23386496D-04  0.14706056D-04  0.23296864D-05
 -0.10235435D-03 -0.98992667D-04 -0.30851690D-04 -0.81540540D-04  0.10906706D-03
  0.82314537D-04 -0.12592926D-03 -0.79187695D-04 -0.12544661D-04  0.19202889D-03
  0.12075292D-03  0.19129291D-04 -0.10414313D-03 -0.65487993D-04 -0.10374398D-04
 -0.22957247D-04 -0.22203250D-04 -0.69197832D-05 -0.23460249D-05  0.31379979D-05
  0.23682938D-05  0.56821333D-04  0.35730779D-04  0.56603557D-05  0.24460493D-04
  0.15381414D-04  0.24366744D-05  0.50107273D-04  0.31508798D-04  0.49915230D-05
 -0.85833053D-04 -0.83013992D-04 -0.25871835D-04 -0.20805199D-04  0.27828634D-04
  0.21002685D-04 -0.43377750D-03 -0.27277093D-03 -0.43211498D-04  0.43140806D-03
  0.27128097D-03  0.42975463D-04 -0.96639009D-04 -0.60769202D-04 -0.96268626D-05
  0.46659338D-04  0.45126881D-04  0.14064078D-04 -0.33981579D-04  0.45453108D-04
  0.34304139D-04 -0.73505269D-05 -0.46222086D-05 -0.73223550D-06 -0.52156391D-04
 -0.32797338D-04 -0.51956494D-05 -0.11183597D-03 -0.70325456D-04 -0.11140734D-04
  0.46761688D-01  0.45225869D-01  0.14094928D-01  0.10029529D-02 -0.13415305D-02
 -0.10124731D-02 -0.38159693D-02 -0.23995839D-02 -0.38013440D-03 -0.12228061D-02
 -0.76893332D-03 -0.12181196D-03 -0.26352060D-02 -0.16570883D-02 -0.26251062D-03
  0.26813316D+01  0.25932672D+01  0.80820812D+00 -0.71285329D-02  0.95349887D-02
  0.71961982D-02  0.13548706D-03  0.85197902D-04  0.13496779D-04  0.36401197D-03
  0.22890049D-03  0.36261684D-04  0.33730196D-03  0.21210452D-03  0.33600920D-04
  0.21275135D-02  0.20576385D-02  0.64127603D-03  0.10173167D-04 -0.13607433D-04
 -0.10269733D-04 -0.10569669D-03 -0.66464913D-04 -0.10529159D-04 -0.19756477D-05
 -0.12423403D-05 -0.19680757D-06 -0.28164222D-04 -0.17710419D-04 -0.28056279D-05
  0.22814450D-01  0.22065143D-01  0.68767412D-02  0.10872869D-02 -0.14543341D-02
 -0.10976076D-02  0.39812705D-02  0.25035297D-02  0.39660117D-03 -0.25137481D-02
 -0.15807123D-02 -0.25041138D-03 -0.13965134D-02 -0.87816508D-03 -0.13911610D-03
 -0.13780115D-04 -0.13327527D-04 -0.41536081D-05 -0.25432994D-02 -0.24597685D-02
 -0.76660239D-03 -0.25393691D-02 -0.24559673D-02 -0.76541773D-03  0.65813841D-05
  0.63652281D-05  0.19837636D-05 -0.49629102D-04 -0.47999107D-04 -0.14959225D-04
  0.80945918D-06  0.78287368D-06  0.24398753D-06 -0.42011513D-04 -0.40631706D-04
 -0.12663128D-04
MO   10     MO 0.0        OCC NO =    2.0000000  ORB. ENERGY =   -1.025961
 -0.68692793D+00 -0.66436678D+00 -0.20705411D+00 -0.13672430D+00  0.18287979D+00
  0.13802211D+00 -0.18406003D+00 -0.11574189D+00 -0.18335460D-01 -0.18734046D-01
 -0.11780471D-01 -0.18662245D-02  0.11710167D+00  0.73636674D-01  0.11665286D-01
 -0.10110737D+00 -0.97786643D-01 -0.30475825D-01 -0.19999720D-01  0.26751242D-01
  0.20189561D-01  0.73072453D-02  0.45949919D-02  0.72792392D-03  0.67717366D-02
  0.42582497D-02  0.67457830D-03 -0.30441397D-01 -0.19142367D-01 -0.30324725D-02
 -0.54324114D+00 -0.52539918D+00 -0.16374397D+00 -0.10415942D+00  0.13932164D+00
  0.10514812D+00  0.18279315D+00  0.11494524D+00  0.18209257D-01  0.60460532D-01
  0.38019205D-01  0.60228808D-02 -0.11364527D+00 -0.71463196D-01 -0.11320971D-01
 -0.79626335D-01 -0.77011124D-01 -0.24001004D-01 -0.15135667D-01  0.20245178D-01
  0.15279338D-01 -0.15357031D-01 -0.96569135D-02 -0.15298173D-02 -0.38322399D-02
 -0.24098153D-02 -0.38175522D-03  0.29338031D-01  0.18448541D-01  0.29225588D-02
 -0.29549387D-01 -0.28578880D-01 -0.89067887D-02 -0.50566391D-02  0.67636634D-02
  0.51046376D-02  0.16787870D-02  0.10556663D-02  0.16723528D-03 -0.12222187D-01
 -0.76856394D-02 -0.12175344D-02 -0.96782211D-03 -0.60859251D-03 -0.96411279D-04
 -0.58507895D-01 -0.56586288D-01 -0.17635474D-01 -0.86564388D-02  0.11578686D-01
  0.87386073D-02 -0.40180573D-02 -0.25266622D-02 -0.40026575D-03 -0.20699739D-01