 opt aspartic m062x
GAUSSIAN             35 MOL ORBITALS    156 PRIMITIVES       16 NUCLEI
  O    1    (CENTRE  1)  -0.36619172 -3.08179369  0.07655402  CHARGE =  8.0
  O    2    (CENTRE  2)   4.77973131 -0.35772636  1.73995042  CHARGE =  8.0
  O    3    (CENTRE  3)  -4.64126621 -2.08670159  0.19007575  CHARGE =  8.0
  O    4    (CENTRE  4)   3.63494654  0.06386373 -2.47116661  CHARGE =  8.0
  N    5    (CENTRE  5)  -3.57380001  3.23643623  0.03868884  CHARGE =  7.0
  C    6    (CENTRE  6)  -1.52955309  1.37126406 -0.59300738  CHARGE =  6.0
  C    7    (CENTRE  7)   0.92207340  1.98784238  0.88536461  CHARGE =  6.0
  C    8    (CENTRE  8)  -2.41703199 -1.40978930 -0.07448345  CHARGE =  6.0
  C    9    (CENTRE  9)   3.18978533  0.48031995 -0.21420481  CHARGE =  6.0
  H   10    (CENTRE 10)  -1.11263246  1.52712642 -2.63436408  CHARGE =  1.0
  H   11    (CENTRE 11)   0.71861640  1.53664512  2.90018638  CHARGE =  1.0
  H   12    (CENTRE 12)   1.30281970  4.02303573  0.70283820  CHARGE =  1.0
  H   13    (CENTRE 13)  -3.86088571  3.02553959  2.00102956  CHARGE =  1.0
  H   14    (CENTRE 14)  -5.23015671  2.41535005 -0.71329579  CHARGE =  1.0
  H   15    (CENTRE 15)  -1.21494019 -4.77846447  0.38964151  CHARGE =  1.0
  H   16    (CENTRE 16)   6.16437775 -1.28324527  0.77781985  CHARGE =  1.0
CENTRE ASSIGNMENTS    1  1  1  1  1  1  1  1  1  1  1  1  1  1  1  2  2  2  2  2
CENTRE ASSIGNMENTS    2  2  2  2  2  2  2  2  2  2  3  3  3  3  3  3  3  3  3  3
CENTRE ASSIGNMENTS    3  3  3  3  3  4  4  4  4  4  4  4  4  4  4  4  4  4  4  4
CENTRE ASSIGNMENTS    5  5  5  5  5  5  5  5  5  5  5  5  5  5  5  6  6  6  6  6
CENTRE ASSIGNMENTS    6  6  6  6  6  6  6  6  6  6  7  7  7  7  7  7  7  7  7  7
CENTRE ASSIGNMENTS    7  7  7  7  7  8  8  8  8  8  8  8  8  8  8  8  8  8  8  8
CENTRE ASSIGNMENTS    9  9  9  9  9  9  9  9  9  9  9  9  9  9  9 10 10 10 11 11
CENTRE ASSIGNMENTS   11 12 12 12 13 13 13 14 14 14 15 15 15 16 16 16
TYPE ASSIGNMENTS      1  1  1  1  1  1  2  2  2  3  3  3  4  4  4  1  1  1  1  1
TYPE ASSIGNMENTS      1  2  2  2  3  3  3  4  4  4  1  1  1  1  1  1  2  2  2  3
TYPE ASSIGNMENTS      3  3  4  4  4  1  1  1  1  1  1  2  2  2  3  3  3  4  4  4
TYPE ASSIGNMENTS      1  1  1  1  1  1  2  2  2  3  3  3  4  4  4  1  1  1  1  1
TYPE ASSIGNMENTS      1  2  2  2  3  3  3  4  4  4  1  1  1  1  1  1  2  2  2  3
TYPE ASSIGNMENTS      3  3  4  4  4  1  1  1  1  1  1  2  2  2  3  3  3  4  4  4
TYPE ASSIGNMENTS      1  1  1  1  1  1  2  2  2  3  3  3  4  4  4  1  1  1  1  1
TYPE ASSIGNMENTS      1  1  1  1  1  1  1  1  1  1  1  1  1  1  1  1
EXPONENTS  0.1307093D+03 0.2380887D+02 0.6443608D+01 0.5033151D+01 0.1169596D+01
EXPONENTS  0.3803890D+00 0.5033151D+01 0.1169596D+01 0.3803890D+00 0.5033151D+01
EXPONENTS  0.1169596D+01 0.3803890D+00 0.5033151D+01 0.1169596D+01 0.3803890D+00
EXPONENTS  0.1307093D+03 0.2380887D+02 0.6443608D+01 0.5033151D+01 0.1169596D+01
EXPONENTS  0.3803890D+00 0.5033151D+01 0.1169596D+01 0.3803890D+00 0.5033151D+01
EXPONENTS  0.1169596D+01 0.3803890D+00 0.5033151D+01 0.1169596D+01 0.3803890D+00
EXPONENTS  0.1307093D+03 0.2380887D+02 0.6443608D+01 0.5033151D+01 0.1169596D+01
EXPONENTS  0.3803890D+00 0.5033151D+01 0.1169596D+01 0.3803890D+00 0.5033151D+01
EXPONENTS  0.1169596D+01 0.3803890D+00 0.5033151D+01 0.1169596D+01 0.3803890D+00
EXPONENTS  0.1307093D+03 0.2380887D+02 0.6443608D+01 0.5033151D+01 0.1169596D+01
EXPONENTS  0.3803890D+00 0.5033151D+01 0.1169596D+01 0.3803890D+00 0.5033151D+01
EXPONENTS  0.1169596D+01 0.3803890D+00 0.5033151D+01 0.1169596D+01 0.3803890D+00
EXPONENTS  0.9910617D+02 0.1805231D+02 0.4885660D+01 0.3780456D+01 0.8784966D+00
EXPONENTS  0.2857144D+00 0.3780456D+01 0.8784966D+00 0.2857144D+00 0.3780456D+01
EXPONENTS  0.8784966D+00 0.2857144D+00 0.3780456D+01 0.8784966D+00 0.2857144D+00
EXPONENTS  0.7161684D+02 0.1304510D+02 0.3530512D+01 0.2941249D+01 0.6834831D+00
EXPONENTS  0.2222899D+00 0.2941249D+01 0.6834831D+00 0.2222899D+00 0.2941249D+01
EXPONENTS  0.6834831D+00 0.2222899D+00 0.2941249D+01 0.6834831D+00 0.2222899D+00
EXPONENTS  0.7161684D+02 0.1304510D+02 0.3530512D+01 0.2941249D+01 0.6834831D+00
EXPONENTS  0.2222899D+00 0.2941249D+01 0.6834831D+00 0.2222899D+00 0.2941249D+01
EXPONENTS  0.6834831D+00 0.2222899D+00 0.2941249D+01 0.6834831D+00 0.2222899D+00
EXPONENTS  0.7161684D+02 0.1304510D+02 0.3530512D+01 0.2941249D+01 0.6834831D+00
EXPONENTS  0.2222899D+00 0.2941249D+01 0.6834831D+00 0.2222899D+00 0.2941249D+01
EXPONENTS  0.6834831D+00 0.2222899D+00 0.2941249D+01 0.6834831D+00 0.2222899D+00
EXPONENTS  0.7161684D+02 0.1304510D+02 0.3530512D+01 0.2941249D+01 0.6834831D+00
EXPONENTS  0.2222899D+00 0.2941249D+01 0.6834831D+00 0.2222899D+00 0.2941249D+01
EXPONENTS  0.6834831D+00 0.2222899D+00 0.2941249D+01 0.6834831D+00 0.2222899D+00
EXPONENTS  0.3425251D+01 0.6239137D+00 0.1688554D+00 0.3425251D+01 0.6239137D+00
EXPONENTS  0.1688554D+00 0.3425251D+01 0.6239137D+00 0.1688554D+00 0.3425251D+01
EXPONENTS  0.6239137D+00 0.1688554D+00 0.3425251D+01 0.6239137D+00 0.1688554D+00
EXPONENTS  0.3425251D+01 0.6239137D+00 0.1688554D+00 0.3425251D+01 0.6239137D+00
EXPONENTS  0.1688554D+00
MO    1     MO 0.0        OCC NO =    2.0000000  ORB. ENERGY =  -19.437095
  0.42264766D+01  0.40876641D+01  0.12739464D+01 -0.63895860D-02  0.85465875D-02
  0.64502371D-02 -0.68938139D-02 -0.43350152D-02 -0.68673924D-03 -0.99054605D-03
 -0.62288194D-03 -0.98674964D-04  0.54116334D-03  0.34029803D-03  0.53908925D-04
  0.28761841D-02  0.27817200D-02  0.86694063D-03 -0.16293149D-04  0.21793403D-04
  0.16447806D-04 -0.61647301D-04 -0.38765477D-04 -0.61411029D-05 -0.24988742D-04
 -0.15713592D-04 -0.24892969D-05 -0.54730835D-04 -0.34416218D-04 -0.54521071D-05
  0.37156009D-02  0.35935674D-02  0.11199580D-02 -0.52012713D-04  0.69571205D-04
  0.52506426D-04  0.44703623D-03  0.28110838D-03  0.44532289D-04 -0.93874757D-03
 -0.59030966D-03 -0.93514968D-04  0.12933734D-03  0.81330793D-04  0.12884164D-04
  0.85642454D-03  0.82829653D-03  0.25814385D-03 -0.22037384D-04  0.29476781D-04
  0.22246567D-04 -0.54537017D-04 -0.34294340D-04 -0.54327996D-05 -0.26824358D-04
 -0.16867876D-04 -0.26721549D-05  0.11312289D-03  0.71134708D-04  0.11268933D-04
  0.48730341D-05  0.47129864D-05  0.14688320D-05 -0.27649724D-05  0.36983740D-05
  0.27912180D-05  0.10553895D-04  0.66365726D-05  0.10513446D-05  0.56512907D-04
  0.35536832D-04  0.56296313D-05 -0.26482925D-04 -0.16653174D-04 -0.26381425D-05
 -0.57448253D-04 -0.55561450D-04 -0.17316077D-04 -0.44502971D-04  0.59526319D-04
  0.44925401D-04  0.17279299D-03  0.10865687D-03  0.17213074D-04 -0.22548487D-03
 -0.14179094D-03 -0.22462066D-04  0.40427974D-04  0.25422195D-04  0.40273028D-05
  0.15551243D-05  0.15040485D-05  0.46874623D-06 -0.91850446D-06  0.12285739D-05
  0.92722307D-06  0.31729786D-04  0.19952541D-04  0.31608177D-05  0.31356567D-04
  0.19717851D-04  0.31236389D-05  0.32424880D-04  0.20389635D-04  0.32300607D-05
  0.14603991D-02  0.14124344D-02  0.44019411D-03  0.73216095D-03 -0.97932442D-03
 -0.73911075D-03 -0.32399641D-02 -0.20373764D-02 -0.32275465D-03  0.24979349D-02
  0.15707685D-02  0.24883612D-03 -0.21681450D-03 -0.13633878D-03 -0.21598353D-04
  0.13186662D-03  0.12753565D-03  0.39747292D-04  0.40785046D-04 -0.54553294D-04
 -0.41172185D-04  0.13921412D-03  0.87541577D-04  0.13868057D-04  0.20200238D-03
  0.12702452D-03  0.20122818D-04  0.12368736D-04  0.77777929D-05  0.12321331D-05
 -0.76033880D-06 -0.73536658D-06 -0.22918164D-06 -0.64520240D-05 -0.62401167D-05
 -0.19447718D-05 -0.70769401D-05 -0.68445083D-05 -0.21331343D-05 -0.15964378D-05
 -0.15440052D-05 -0.48119897D-06 -0.20161335D-04 -0.19499165D-04 -0.60770381D-05
 -0.16150668D-02 -0.15620223D-02 -0.48681413D-03 -0.30882587D-05 -0.29868293D-05
 -0.93086424D-06
MO    2     MO 0.0        OCC NO =    2.0000000  ORB. ENERGY =  -19.422723
 -0.29415171D-02 -0.28449072D-02 -0.88663332D-03 -0.36593933D-05  0.48947342D-05
  0.36941289D-05  0.91121030D-04  0.57299349D-04  0.90771795D-05  0.50170031D-04
  0.31548262D-04  0.49977748D-05  0.12029759D-04  0.75646353D-05  0.11983653D-05
  0.42264952D+01  0.40876822D+01  0.12739520D+01 -0.63822386D-02  0.85367598D-02
  0.64428199D-02  0.36068074D-03  0.22680573D-03  0.35929838D-04 -0.72378866D-03
 -0.45513773D-03 -0.72101463D-04 -0.69794731D-02 -0.43888800D-02 -0.69527232D-03
  0.12448271D-04  0.12039426D-04  0.37521631D-05 -0.40116508D-06  0.53659071D-06
  0.40497301D-06  0.17459357D-05  0.10978912D-05  0.17392441D-06  0.87332557D-06
  0.54917056D-06  0.86997843D-07 -0.14024865D-05 -0.88192113D-06 -0.13971112D-06
  0.38518562D-02  0.37253476D-02  0.11610281D-02 -0.55080190D-04  0.73674204D-04
  0.55603021D-04  0.84214158D-03  0.52956122D-03  0.83891395D-04 -0.48608577D-03
 -0.30566378D-03 -0.48422278D-04  0.40911856D-03  0.25726473D-03  0.40755056D-04
  0.28461280D-05  0.27526511D-05  0.85788110D-06  0.24304579D-05 -0.32509338D-05
 -0.24535282D-05 -0.21831232D-06 -0.13728064D-06 -0.21747560D-07  0.11393612D-04
  0.71646091D-05  0.11349945D-05 -0.59988946D-06 -0.37722659D-06 -0.59759030D-07
  0.11091299D-04  0.10727022D-04  0.33431441D-05  0.19075850D-05 -0.25515491D-05
 -0.19256922D-05 -0.44224977D-04 -0.27809852D-04 -0.44055478D-05  0.26176353D-04
  0.16460393D-04  0.26076028D-05  0.14781731D-04  0.92951492D-05  0.14725078D-05
 -0.76836213D-04 -0.74312640D-04 -0.23160004D-04 -0.62398251D-04  0.83462702D-04
  0.62990546D-04  0.18814049D-03  0.11830779D-03  0.18741941D-04 -0.15175550D-03
 -0.95427933D-04 -0.15117388D-04  0.20629951D-03  0.12972667D-03  0.20550883D-04
 -0.48458923D-05 -0.46867361D-05 -0.14606509D-05 -0.19550981D-05  0.26151017D-05
  0.19736562D-05  0.11706185D-04  0.73611633D-05  0.11661319D-05 -0.24401749D-06
 -0.15344475D-06 -0.24308226D-07  0.15241521D-05  0.95842777D-06  0.15183106D-06
  0.14653084D-02  0.14171825D-02  0.44167388D-03  0.73086739D-03 -0.97759418D-03
 -0.73780491D-03 -0.23665601D-02 -0.14881565D-02 -0.23574899D-03  0.12331301D-02
  0.77542532D-03  0.12284040D-03 -0.30864313D-02 -0.19408308D-02 -0.30746021D-03
 -0.11392422D-04 -0.11018255D-04 -0.34339087D-05 -0.76196935D-04 -0.73694358D-04
 -0.22967313D-04  0.26841043D-05  0.25959488D-05  0.80904385D-06  0.20143260D-05
  0.19481684D-05  0.60715899D-06  0.50176895D-06  0.48528909D-06  0.15124341D-06
  0.41536331D-05  0.40172131D-05  0.12519899D-05 -0.16164190D-02 -0.15633301D-02
 -0.48722170D-03
MO    3     MO 0.0        OCC NO =    2.0000000  ORB. ENERGY =  -19.384215
 -0.40333597D-02 -0.39008899D-02 -0.12157370D-02 -0.59347931D-04  0.79382653D-04
  0.59911272D-04 -0.70332143D-03 -0.44226739D-03 -0.70062585D-04 -0.50784106D-03
 -0.31934408D-03 -0.50589468D-04  0.13392147D-03  0.84213417D-04  0.13340820D-04
 -0.16125663D-04 -0.15596040D-04 -0.48606043D-05  0.59464742D-07 -0.79538896D-07
 -0.60029191D-07 -0.40836183D-05 -0.25678888D-05 -0.40679672D-06 -0.36387515D-05
 -0.22881446D-05 -0.36248055D-06  0.45006176D-06  0.28301092D-06  0.44833684D-07
  0.42267538D+01  0.40879323D+01  0.12740299D+01 -0.64174312D-02  0.85838327D-02
  0.64783466D-02  0.91737425D-02  0.57686954D-02  0.91385828D-03  0.27663584D-02
  0.17395604D-02  0.27557559D-03 -0.10862176D-02 -0.68304275D-03 -0.10820545D-03
  0.24442231D-03  0.23639462D-03  0.73673878D-04 -0.21765282D-05  0.29112824D-05
  0.21971882D-05 -0.35076840D-05 -0.22057258D-05 -0.34942402D-06  0.10519465D-05
  0.66149221D-06  0.10479148D-06  0.11078992D-04  0.69667673D-05  0.11036530D-05
 -0.38701236D-04 -0.37430150D-04 -0.11665343D-04 -0.15717125D-04  0.21022924D-04
  0.15866315D-04 -0.18313862D-03 -0.11516248D-03 -0.18243672D-04 -0.38332974D-04
 -0.24104803D-04 -0.38186057D-05  0.13448892D-05  0.84570239D-06  0.13397347D-06
 -0.56523510D-04 -0.54667078D-04 -0.17037340D-04 -0.24773743D-04  0.33136883D-04
  0.25008900D-04 -0.41149604D-03 -0.25875975D-03 -0.40991892D-04  0.26028358D-04
  0.16367330D-04  0.25928601D-05  0.41778267D-04  0.26271296D-04  0.41618146D-05
  0.78599416D-05  0.76017933D-05  0.23691469D-05 -0.14198348D-05  0.18991438D-05
  0.14333121D-05 -0.91170597D-05 -0.57330518D-05 -0.90821173D-06  0.53046307D-04
  0.33356941D-04  0.52842999D-05 -0.36471296D-04 -0.22934129D-04 -0.36331514D-05
  0.16442819D-02  0.15902779D-02  0.49562016D-03  0.11913455D-02 -0.15935209D-02
 -0.12026540D-02  0.55741316D-02  0.35051635D-02  0.55527680D-03  0.17167667D-02
  0.10795490D-02  0.17101869D-03 -0.66826234D-03 -0.42022129D-03 -0.66570113D-04
  0.11694380D-04  0.11310295D-04  0.35249251D-05  0.30916868D-05 -0.41353808D-05
 -0.31210336D-05  0.19777074D-04  0.12436355D-04  0.19701276D-05  0.15705798D-04
  0.98762274D-05  0.15645603D-05  0.90557767D-05  0.56945154D-05  0.90210691D-06
  0.11392658D-04  0.11018483D-04  0.34339799D-05  0.85925738D-05  0.83103633D-05
  0.25899773D-05 -0.57283750D-05 -0.55402349D-05 -0.17266492D-05 -0.59245240D-05
 -0.57299417D-05 -0.17857725D-05 -0.82701126D-04 -0.79984928D-04 -0.24927809D-04
 -0.33784917D-04 -0.32675301D-04 -0.10183464D-04  0.10665948D-06  0.10315640D-06
  0.32149346D-07
MO    4     MO 0.0        OCC NO =    2.0000000  ORB. ENERGY =  -19.370139
 -0.94692255D-03 -0.91582227D-03 -0.28542180D-03 -0.10960876D-04  0.14661058D-04
  0.11064919D-04  0.11234239D-03  0.70643906D-04  0.11191182D-04  0.88263565D-04
  0.55502498D-04  0.87925282D-05 -0.25740156D-04 -0.16186101D-04 -0.25641503D-05
 -0.41803242D-02 -0.40430276D-02 -0.12600351D-02 -0.62523356D-04  0.83630039D-04
  0.63116838D-04  0.38482436D-03  0.24198789D-03  0.38334947D-04 -0.28294957D-03
 -0.17792628D-03 -0.28186513D-04 -0.74403211D-03 -0.46786736D-03 -0.74118050D-04
 -0.25078479D-03 -0.24254813D-03 -0.75591657D-04 -0.12342775D-05  0.16509459D-05
  0.12459935D-05  0.55708180D-05  0.35030798D-05  0.55494670D-06  0.45363336D-05
  0.28525683D-05  0.45189474D-06 -0.14001846D-05 -0.88047364D-06 -0.13948182D-06
  0.42267488D+01  0.40879274D+01  0.12740284D+01 -0.64222828D-02  0.85903221D-02
  0.64832443D-02 -0.18008610D-02 -0.11324297D-02 -0.17939589D-03  0.17048860D-02
  0.10720781D-02  0.16983518D-03  0.93551321D-02  0.58827581D-02  0.93192772D-03
 -0.10455185D-05 -0.10111800D-05 -0.31514064D-06 -0.13421358D-05  0.17952151D-05
  0.13548756D-05  0.44382175D-05  0.27908703D-05  0.44212074D-06 -0.48338050D-05
 -0.30396263D-05 -0.48152788D-06 -0.15491503D-05 -0.97414729D-06 -0.15432130D-06
 -0.34260447D-04 -0.33135213D-04 -0.10326798D-04 -0.90687771D-05  0.12130222D-04
  0.91548595D-05  0.24508305D-05  0.15411480D-05  0.24414373D-06 -0.52796312D-04
 -0.33199738D-04 -0.52593963D-05 -0.89679362D-04 -0.56392790D-04 -0.89335653D-05
 -0.46789269D-04 -0.45252544D-04 -0.14103241D-04 -0.17494689D-04  0.23400560D-04
  0.17660752D-04 -0.83058325D-04 -0.52229303D-04 -0.82739991D-05  0.22138057D-04
  0.13921005D-04  0.22053210D-05 -0.39841256D-03 -0.25053251D-03 -0.39688559D-04
 -0.51444242D-05 -0.49754631D-05 -0.15506345D-05  0.49724723D-06 -0.66510835D-06
 -0.50196719D-06  0.16432180D-04  0.10332996D-04  0.16369201D-05 -0.71350906D-05
 -0.44867364D-05 -0.71077443D-06  0.25298861D-05  0.15908602D-05  0.25201899D-06
  0.16428032D-02  0.15888478D-02  0.49517445D-03  0.11935335D-02 -0.15964474D-02
 -0.12048627D-02 -0.11481765D-02 -0.72200416D-03 -0.11437759D-03  0.10679517D-02
  0.67155669D-03  0.10638586D-03  0.56814682D-02  0.35726597D-02  0.56596932D-03
 -0.53344039D-04 -0.51592032D-04 -0.16078983D-04  0.66529737D-05  0.64344665D-05
  0.20053422D-05  0.39497461D-05  0.38200224D-05  0.11905341D-05  0.13594739D-05
  0.13148240D-05  0.40977320D-06  0.25126017D-06  0.24300790D-06  0.75734947D-07
  0.44938293D-05  0.43462361D-05  0.13545320D-05 -0.36560284D-04 -0.35359515D-04
 -0.11020016D-04
MO    5     MO 0.0        OCC NO =    2.0000000  ORB. ENERGY =  -14.552194
  0.21980370D-04  0.21258457D-04  0.66253326D-05  0.37989481D-05 -0.50814000D-05
 -0.38350084D-05 -0.43865555D-04 -0.27583838D-04 -0.43697434D-05 -0.72914437D-04
 -0.45850554D-04 -0.72634982D-05  0.20847677D-04  0.13109579D-04  0.20767775D-05
  0.59857227D-05  0.57891304D-05  0.18042191D-05  0.24345332D-05 -0.32563849D-05
 -0.24576422D-05  0.81650826D-06  0.51344231D-06  0.81337888D-07 -0.12549169D-04
 -0.78912541D-05 -0.12501072D-05  0.90529052D-05  0.56927097D-05  0.90182086D-06
 -0.92565991D-04 -0.89525796D-04 -0.27901280D-04 -0.15362847D-04  0.20549049D-04
  0.15508674D-04 -0.16215728D-03 -0.10196885D-03 -0.16153579D-04  0.16174591D-03
  0.10171017D-03  0.16112599D-04 -0.37136781D-04 -0.23352605D-04 -0.36994449D-05
 -0.19966629D-05 -0.19310854D-05 -0.60183498D-06 -0.42528326D-05  0.56885072D-05
  0.42932012D-05  0.92519606D-05  0.58178811D-05  0.92165012D-06 -0.29737965D-05
 -0.18700031D-05 -0.29623990D-06  0.35421504D-04  0.22273992D-04  0.35285745D-05
  0.34310609D+01  0.33183728D+01  0.10341918D+01 -0.62886721D-02  0.84116070D-02
  0.63483653D-02 -0.13951334D-02 -0.87729731D-03 -0.13897863D-03 -0.58867184D-02
 -0.37017265D-02 -0.58641567D-03  0.20156859D-02  0.12675174D-02  0.20079605D-03
  0.14695201D-02  0.14212559D-02  0.44294337D-03  0.86938163D-03 -0.11628682D-02
 -0.87763395D-03  0.29953782D-02  0.18835742D-02  0.29838980D-03 -0.26371202D-02
 -0.16582919D-02 -0.26270130D-03 -0.96124735D-03 -0.60445813D-03 -0.95756323D-04
 -0.33556540D-04 -0.32454424D-04 -0.10114627D-04 -0.50942141D-04  0.68139229D-04
  0.51425692D-04 -0.19918097D-03 -0.12525034D-03 -0.19841758D-04  0.10014498D-03
  0.62973849D-04  0.99761158D-05 -0.30328829D-04 -0.19071581D-04 -0.30212589D-05
 -0.59513035D-04 -0.57558416D-04 -0.17938444D-04 -0.61869916D-04  0.82756011D-04
  0.62457196D-04 -0.14795367D-03 -0.93037236D-04 -0.14738661D-04  0.24524742D-03
  0.15421816D-03  0.24430747D-04  0.30099965D-04  0.18927666D-04  0.29984602D-05
  0.29449089D-04  0.28481876D-04  0.88765568D-05  0.11585704D-04 -0.15496815D-04
 -0.11695678D-04  0.74139885D-04  0.46621149D-04  0.73855734D-05  0.21311308D-04
  0.13401122D-04  0.21229629D-05  0.43509006D-04  0.27359631D-04  0.43342252D-05
  0.78043830D-04  0.75480594D-04  0.23524004D-04  0.34195564D-04  0.33072461D-04
  0.10307241D-04 -0.45166084D-04 -0.43682670D-04 -0.13613980D-04 -0.19619961D-02
 -0.18975572D-02 -0.59138570D-03 -0.19599536D-02 -0.18955818D-02 -0.59077005D-03
 -0.14338229D-05 -0.13867310D-05 -0.43218350D-06 -0.25144686D-06 -0.24318845D-06
 -0.75791218D-07
MO    6     MO 0.0        OCC NO =    2.0000000  ORB. ENERGY =  -10.489198
  0.21532062D-02  0.20824873D-02  0.64902032D-03  0.11738921D-02 -0.15701755D-02
 -0.11850348D-02  0.40065810D-02  0.25194456D-02  0.39912252D-03 -0.39305853D-02
 -0.24716575D-02 -0.39155207D-03  0.39172139D-03  0.24632492D-03  0.39022006D-04
 -0.15001736D-04 -0.14509026D-04 -0.45218297D-05 -0.57977189D-05  0.77549173D-05
  0.58527518D-05 -0.34290364D-04 -0.21562701D-04 -0.34158941D-05 -0.64989923D-06
 -0.40867408D-06 -0.64740840D-07 -0.11327243D-04 -0.71228741D-05 -0.11283829D-05
  0.16769485D-02  0.16218716D-02  0.50546654D-03  0.16230810D-02 -0.21710020D-02
 -0.16384876D-02 -0.42213570D-02 -0.26545026D-02 -0.42051781D-03 -0.11515036D-02
 -0.72409638D-03 -0.11470903D-03  0.47125492D-03  0.29633774D-03  0.46944876D-04
 -0.19048642D-04 -0.18423017D-04 -0.57416498D-05 -0.96443625D-05  0.12900114D-04
  0.97359085D-05 -0.27285773D-04 -0.17158026D-04 -0.27181196D-05 -0.11168919D-05
 -0.70233159D-06 -0.11126112D-06  0.35241108D-04  0.22160555D-04  0.35106042D-05
 -0.11045416D-03 -0.10682646D-03 -0.33293140D-04 -0.10032277D-03  0.13418980D-03
  0.10127505D-03 -0.27011674D-04 -0.16985666D-04 -0.26908148D-05 -0.10248761D-03
 -0.64446958D-04 -0.10209481D-04 -0.33982994D-04 -0.21369418D-04 -0.33852749D-05
 -0.17381329D-01 -0.16810465D-01 -0.52390876D-02  0.97150813D-03 -0.12994706D-02
 -0.98072985D-03  0.13638117D-02  0.85760139D-03  0.13585847D-03  0.36858154D-02
  0.23177396D-02  0.36716890D-03 -0.76357614D-03 -0.48015717D-03 -0.76064962D-04
 -0.84817064D-03 -0.82031371D-03 -0.25565595D-03 -0.32091317D-04  0.42924728D-04
  0.32395933D-04  0.43236752D-05  0.27188430D-05  0.43071041D-06  0.15945020D-03
  0.10026657D-03  0.15883909D-04  0.10418088D-04  0.65511735D-05  0.10378160D-05
  0.26861575D+01  0.25979346D+01  0.80966274D+00 -0.55181622D-02  0.73809878D-02
  0.55705416D-02 -0.61855797D-03 -0.38896585D-03 -0.61618725D-04 -0.29179888D-03
 -0.18349097D-03 -0.29068052D-04  0.12664750D-03  0.79639344D-04  0.12616210D-04
 -0.72668655D-02 -0.70281960D-02 -0.21903817D-02  0.20227407D-04 -0.27055790D-04
 -0.20419409D-04  0.35721533D-04  0.22462658D-04  0.35584625D-05  0.56997526D-04
  0.35841574D-04  0.56779075D-05  0.89243444D-05  0.56118673D-05  0.88901406D-06
 -0.38209331D-04 -0.36954402D-04 -0.11517073D-04 -0.74537220D-04 -0.72089154D-04
 -0.22467040D-04 -0.41946257D-04 -0.40568594D-04 -0.12643459D-04 -0.84558620D-04
 -0.81781416D-04 -0.25487695D-04 -0.14205976D-03 -0.13739401D-03 -0.42819713D-04
 -0.43846871D-03 -0.42406785D-03 -0.13216343D-03  0.18539696D-05  0.17930787D-05
  0.55882432D-06
MO    7     MO 0.0        OCC NO =    2.0000000  ORB. ENERGY =  -10.485338
  0.32848073D-03  0.31769227D-03  0.99010803D-04  0.71331225D-04 -0.95411276D-04
 -0.72008313D-04 -0.72001469D-03 -0.45276456D-03 -0.71725513D-04 -0.57609466D-03
 -0.36226378D-03 -0.57388669D-04  0.84771705D-04  0.53306723D-04  0.84446805D-05
  0.21642233D-02  0.20931425D-02  0.65234110D-03  0.11719422D-02 -0.15675674D-02
 -0.11830665D-02  0.36906109D-02  0.23207552D-02  0.36764661D-03 -0.20068308D-02
 -0.12619491D-02 -0.19991394D-03  0.37623852D-02  0.23658888D-02  0.37479654D-03
  0.29922488D-04  0.28939728D-04  0.90192492D-05  0.16318892D-04 -0.21827836D-04
 -0.16473794D-04 -0.61854295D-04 -0.38895640D-04 -0.61617229D-05 -0.38795591D-04
 -0.24395709D-04 -0.38646902D-05  0.43663469D-05  0.27456761D-05  0.43496122D-06
  0.16472862D-02  0.15931835D-02  0.49652572D-03  0.16095328D-02 -0.21528801D-02
 -0.16248107D-02  0.75512406D-03  0.47484227D-03  0.75222994D-04 -0.74069478D-03
 -0.46576876D-03 -0.73785596D-04 -0.41879911D-02 -0.26335212D-02 -0.41719400D-03
  0.58558260D-04  0.56634999D-04  0.17650656D-04  0.21128125D-04 -0.28260574D-04
 -0.21328677D-04 -0.10513757D-03 -0.66113323D-04 -0.10473461D-04  0.58978594D-04
  0.37087322D-04  0.58752550D-05 -0.83289741D-05 -0.52374824D-05 -0.82970521D-06
 -0.19357209D-02 -0.18721450D-02 -0.58346581D-03 -0.20778207D-04  0.27792530D-04
  0.20975437D-04 -0.11298514D-03 -0.71048087D-04 -0.11255211D-04  0.19870691D-03
  0.12495224D-03  0.19794534D-04  0.27211910D-04  0.17111579D-04  0.27107617D-05
 -0.10949930D-01 -0.10590296D-01 -0.33005327D-02  0.97167962D-03 -0.12997000D-02
 -0.98090297D-03 -0.31158667D-02 -0.19593406D-02 -0.31039247D-03  0.20937498D-02
  0.13166060D-02  0.20857252D-03  0.16309145D-02  0.10255628D-02  0.16246638D-03
  0.73005216D-02  0.70607467D-02  0.22005263D-02 -0.18368886D-04  0.24569869D-04
  0.18543247D-04 -0.10395622D-03 -0.65370459D-04 -0.10355779D-04  0.27893018D-04
  0.17539878D-04  0.27786114D-05  0.16732489D-04  0.10521838D-04  0.16668359D-05
  0.26862076D+01  0.25979831D+01  0.80967785D+00 -0.55239221D-02  0.73886920D-02
  0.55763561D-02  0.13929380D-03  0.87591677D-04  0.13875993D-04 -0.77849997D-04
 -0.48954167D-04 -0.77551625D-05 -0.48151733D-03 -0.30279102D-03 -0.47967185D-04
 -0.85149333D-04 -0.82352728D-04 -0.25665748D-04 -0.10186212D-04 -0.98516611D-05
 -0.30703325D-05 -0.37888864D-04 -0.36644460D-04 -0.11420478D-04 -0.86202685D-05
 -0.83371484D-05 -0.25983250D-05 -0.15921161D-05 -0.15398253D-05 -0.47989630D-06
 -0.36365339D-04 -0.35170972D-04 -0.10961256D-04 -0.44071313D-03 -0.42623855D-03
 -0.13283994D-03
MO    8     MO 0.0        OCC NO =    2.0000000  ORB. ENERGY =  -10.435420
 -0.44821036D-04 -0.43348954D-04 -0.13509976D-04 -0.53815567D-04  0.71982669D-04
  0.54326394D-04 -0.96656571D-04 -0.60780246D-04 -0.96286121D-05  0.14046285D-03
  0.88326810D-04  0.13992451D-04  0.56857624D-05  0.35753600D-05  0.56639709D-06
  0.29614849D-04  0.28642193D-04  0.89265204D-05  0.13621736D-04 -0.18220173D-04
 -0.13751036D-04  0.31151663D-04  0.19589002D-04  0.31032270D-05 -0.82172694D-04
 -0.51672395D-04 -0.81857755D-05  0.73613541D-05  0.46290170D-05  0.73331406D-06
 -0.90960553D-04 -0.87973087D-04 -0.27417369D-04 -0.37603818D-04  0.50298145D-04
  0.37960760D-04  0.12858335D-04  0.80856658D-05  0.12809053D-05  0.51105230D-03
  0.32136340D-03  0.50909361D-04 -0.79769842D-04 -0.50161417D-04 -0.79464113D-05
 -0.69989867D-04 -0.67691152D-04 -0.21096375D-04 -0.28204585D-04  0.37725911D-04
  0.28472308D-04 -0.63883796D-04 -0.40171845D-04 -0.63638952D-05  0.54029219D-04
  0.33975023D-04  0.53822144D-05  0.44158570D-04  0.27768094D-04  0.43989326D-05
  0.22325052D-02  0.21591819D-02  0.67292267D-03  0.10620103D-02 -0.14205245D-02
 -0.10720910D-02 -0.38695089D-02 -0.24332510D-02 -0.38546784D-03  0.32480338D-02
  0.20424508D-02  0.32355852D-03  0.12720748D-02  0.79991477D-03  0.12671994D-03
  0.26840518D+01  0.25958980D+01  0.80902803D+00 -0.63398856D-02  0.84801092D-02
  0.64000649D-02  0.32481647D-03  0.20425332D-03  0.32357157D-04 -0.10418554D-03
 -0.65514664D-04 -0.10378624D-04 -0.35762789D-03 -0.22488601D-03 -0.35625723D-04
 -0.32898350D-01 -0.31817852D-01 -0.99162346D-02  0.11204755D-02 -0.14987264D-02
 -0.11311112D-02  0.36613067D-02  0.23023279D-02  0.36472742D-03  0.88382296D-03
  0.55577159D-03  0.88043558D-04  0.21585119D-02  0.13573302D-02  0.21502391D-03
  0.20916994D-01  0.20230006D-01  0.63048093D-02  0.98298477D-03 -0.13148215D-02
 -0.99231543D-03 -0.12351429D-02 -0.77669097D-03 -0.12304090D-03 -0.40902322D-02
 -0.25720478D-02 -0.40745558D-03  0.71348541D-03  0.44865877D-03  0.71075087D-04
  0.19200389D-02  0.18569781D-02  0.57873896D-03 -0.21513575D-04  0.28776144D-04
  0.21717785D-04 -0.92690455D-05 -0.58286246D-05 -0.92335206D-06  0.10388582D-03
  0.65326193D-04  0.10348766D-04  0.12991269D-03  0.81692584D-04  0.12941478D-04
 -0.22631513D-02 -0.21888214D-02 -0.68216002D-03  0.44047108D-04  0.42600445D-04
  0.13276698D-04  0.43156761D-04  0.41739340D-04  0.13008329D-04 -0.14781137D-03
 -0.14295672D-03 -0.44553367D-04 -0.13367591D-03 -0.12928552D-03 -0.40292649D-04
 -0.36608643D-04 -0.35406285D-04 -0.11034593D-04 -0.91571294D-06 -0.88563769D-06
 -0.27601458D-06
MO    9     MO 0.0        OCC NO =    2.0000000  ORB. ENERGY =  -10.406970
  0.21783320D-04  0.21067879D-04  0.65659376D-05 -0.35963507D-05  0.48104095D-05
  0.36304878D-05 -0.78082651D-04 -0.49100466D-04 -0.77783388D-05 -0.12215747D-03
 -0.76815898D-04 -0.12168929D-04 -0.75359236D-04 -0.47387910D-04 -0.75070411D-05
 -0.78622404D-04 -0.76040166D-04 -0.23698398D-04 -0.73868409D-04  0.98804965D-04
  0.74569581D-04 -0.17793986D-03 -0.11189336D-03 -0.17725788D-04  0.71721641D-04
  0.45100492D-04  0.71446757D-05 -0.10253060D-03 -0.64473990D-04 -0.10213763D-04
  0.23350652D-04  0.22583734D-04  0.70383633D-05  0.13547255D-04 -0.18120548D-04
 -0.13675848D-04 -0.36073292D-04 -0.22683854D-04 -0.35935036D-05 -0.33660451D-04
 -0.21166595D-04 -0.33531443D-05  0.46689485D-04  0.29359601D-04  0.46510541D-05
 -0.81020284D-04 -0.78359291D-04 -0.24421168D-04 -0.27844213D-04  0.37243884D-04
  0.28108515D-04 -0.43836244D-03 -0.27565407D-03 -0.43668236D-04  0.27633524D-03
  0.17376701D-03  0.27527614D-04 -0.16412779D-04 -0.10320796D-04 -0.16349875D-05
  0.59743571D-05  0.57781381D-05  0.18007933D-05 -0.46130946D-04  0.61703868D-04
  0.46568829D-04 -0.23634454D-05 -0.14861979D-05 -0.23543871D-06 -0.75389344D-04
 -0.47406843D-04 -0.75100404D-05 -0.21642843D-04 -0.13609600D-04 -0.21559893D-05
  0.36424133D-01  0.35227836D-01  0.10978978D-01  0.95800573D-03 -0.12814101D-02
 -0.96709928D-03 -0.35949380D-02 -0.22605935D-02 -0.35811599D-03 -0.94036558D-03
 -0.59132711D-03 -0.93676149D-04 -0.22174973D-02 -0.13944218D-02 -0.22089984D-03
  0.26838229D+01  0.25956767D+01  0.80895905D+00 -0.65376504D-02  0.87446356D-02
  0.65997069D-02  0.12626889D-03  0.79401269D-04  0.12578495D-04  0.20584767D-03
  0.12944254D-03  0.20505873D-04  0.15088860D-03  0.94882799D-04  0.15031029D-04
  0.13113787D-02  0.12683084D-02  0.39527633D-03 -0.47153155D-05  0.63071154D-05
  0.47600741D-05 -0.10378532D-03 -0.65262993D-04 -0.10338755D-04  0.30753263D-05
  0.19338477D-05  0.30635397D-06 -0.18045569D-04 -0.11347538D-04 -0.17976407D-05
  0.14460324D-01  0.13985396D-01  0.43586370D-02  0.10116712D-02 -0.13531920D-02
 -0.10212742D-02  0.33897343D-02  0.21315559D-02  0.33767427D-03 -0.22544289D-02
 -0.14176454D-02 -0.22457885D-03 -0.16651079D-02 -0.10470645D-02 -0.16587262D-03
 -0.76845337D-05 -0.74321464D-05 -0.23162754D-05 -0.22623717D-02 -0.21880674D-02
 -0.68192504D-03 -0.22608327D-02 -0.21865790D-02 -0.68146116D-03 -0.30687769D-04
 -0.29679874D-04 -0.92499204D-05 -0.39590563D-04 -0.38290269D-04 -0.11933404D-04
 -0.69386440D-05 -0.67107544D-05 -0.20914490D-05 -0.35322410D-04 -0.34162297D-04
 -0.10646896D-04
MO   10     MO 0.0        OCC NO =    2.0000000  ORB. ENERGY =   -1.153909
 -0.66219249D+00 -0.64044375D+00 -0.19959834D+00 -0.13201647D+00  0.17658270D+00
  0.13326959D+00 -0.20127124D+00 -0.12656476D+00 -0.20049984D-01  0.11833751D-02
  0.74413799D-03  0.11788396D-03  0.12344938D-01  0.77628284D-02  0.12297624D-02
 -0.10567634D+00 -0.10220556D+00 -0.31853008D-01 -0.20912331D-01  0.27971933D-01
  0.21110835D-01 -0.39138012D-02 -0.24611032D-02 -0.38988010D-03 -0.82832903D-03
 -0.52087552D-03 -0.82515434D-04 -0.32940575D-01 -0.20713917D-01 -0.32814325D-02
 -0.56148261D+00 -0.54304154D+00 -0.16924233D+00 -0.10810021D+00  0.14459277D+00
  0.10912632D+00  0.21424484D+00  0.13472291D+00  0.21342372D-01  0.49705152D-01
  0.31255934D-01  0.49514650D-02 -0.22073312D-01 -0.13880291D-01 -0.21988713D-02
 -0.10075107D+00 -0.97442044D-01 -0.30368429D-01 -0.19243226D-01  0.25739369D-01
  0.19425886D-01 -0.70795757D-02 -0.44518272D-02 -0.70524422D-03  0.47220912D-02
  0.29693776D-02  0.47039931D-03  0.39093649D-01  0.24583136D-01  0.38943817D-02
 -0.28944220D-01 -0.27993590D-01 -0.87243792D-02 -0.49414334D-02  0.66095663D-02
  0.49883383D-02  0.16953385D-02  0.10660743D-02  0.16888409D-03 -0.11864953D-01
 -0.74610009D-02 -0.11819479D-02  0.98820438D-03  0.62140943D-03  0.98441694D-04
 -0.58437723D-01 -0.56518421D-01 -0.17614323D-01 -0.85834084D-02  0.11481002D-01
  0.86648836D-02 -0.51057525D-02 -0.32106342D-02 -0.50861839D-03 -0.20148125D-01