 opt cystine pbe0
GAUSSIAN             90 MOL ORBITALS    270 PRIMITIVES       26 NUCLEI
  S    1    (CENTRE  1)   0.76371882 -1.03199307 -1.53154929  CHARGE = 16.0
  S    2    (CENTRE  2)  -1.00126558 -0.16882216  1.86881112  CHARGE = 16.0
  O    3    (CENTRE  3)   8.76700053 -1.35768260  1.81349119  CHARGE =  8.0
  O    4    (CENTRE  4)  -6.28104031 -3.54902551 -0.48412391  CHARGE =  8.0
  O    5    (CENTRE  5)   6.93441309 -2.51915083 -1.99868134  CHARGE =  8.0
  O    6    (CENTRE  6)  -8.47975092 -0.78510939  2.11677579  CHARGE =  8.0
  N    7    (CENTRE  7)   6.82551093  3.49301964  0.54897777  CHARGE =  7.0
  N    8    (CENTRE  8)  -7.27910917  2.83187916 -1.96706636  CHARGE =  7.0
  C    9    (CENTRE  9)   5.20560562  1.15572472  0.47884228  CHARGE =  6.0
  C   10    (CENTRE 10)  -5.39807665  0.94014926 -1.01015052  CHARGE =  6.0
  C   11    (CENTRE 11)   3.14330950  1.44240830 -1.57916814  CHARGE =  6.0
  C   12    (CENTRE 12)  -3.34588812  2.08564225  0.76865950  CHARGE =  6.0
  C   13    (CENTRE 13)   6.97498753 -1.11454714 -0.12683725  CHARGE =  6.0
  C   14    (CENTRE 14)  -6.91197401 -1.14203880  0.40992276  CHARGE =  6.0
  H   15    (CENTRE 15)   4.28141803  0.76633991  2.31848753  CHARGE =  1.0
  H   16    (CENTRE 16)  -4.45530831  0.06519501 -2.64833038  CHARGE =  1.0
  H   17    (CENTRE 17)   2.27228258  3.31656917 -1.38182166  CHARGE =  1.0
  H   18    (CENTRE 18)   4.05100694  1.37056877 -3.44073471  CHARGE =  1.0
  H   19    (CENTRE 19)  -2.44299478  3.67887743 -0.21396008  CHARGE =  1.0
  H   20    (CENTRE 20)  -4.27528892  2.84769963  2.46061231  CHARGE =  1.0
  H   21    (CENTRE 21)   8.20095074  3.09798617  1.92448224  CHARGE =  1.0
  H   22    (CENTRE 22)   5.70154949  4.87366480  1.42575192  CHARGE =  1.0
  H   23    (CENTRE 23)  -6.20176676  4.37117819 -2.60601239  CHARGE =  1.0
  H   24    (CENTRE 24)  -8.15655324  3.54384485 -0.33469242  CHARGE =  1.0
  H   25    (CENTRE 25)   9.84580969 -2.81649782  1.20901396  CHARGE =  1.0
  H   26    (CENTRE 26)  -7.37793207 -4.69295906  0.59032881  CHARGE =  1.0
CENTRE ASSIGNMENTS    1  1  1  1  1  1  1  1  1  1  1  1  1  1  1  1  1  1  1  1
CENTRE ASSIGNMENTS    1  1  1  1  1  1  1  2  2  2  2  2  2  2  2  2  2  2  2  2
CENTRE ASSIGNMENTS    2  2  2  2  2  2  2  2  2  2  2  2  2  2  3  3  3  3  3  3
CENTRE ASSIGNMENTS    3  3  3  3  3  3  3  3  3  4  4  4  4  4  4  4  4  4  4  4
CENTRE ASSIGNMENTS    4  4  4  4  5  5  5  5  5  5  5  5  5  5  5  5  5  5  5  6
CENTRE ASSIGNMENTS    6  6  6  6  6  6  6  6  6  6  6  6  6  6  7  7  7  7  7  7
CENTRE ASSIGNMENTS    7  7  7  7  7  7  7  7  7  8  8  8  8  8  8  8  8  8  8  8
CENTRE ASSIGNMENTS    8  8  8  8  9  9  9  9  9  9  9  9  9  9  9  9  9  9  9 10
CENTRE ASSIGNMENTS   10 10 10 10 10 10 10 10 10 10 10 10 10 10 11 11 11 11 11 11
CENTRE ASSIGNMENTS   11 11 11 11 11 11 11 11 11 12 12 12 12 12 12 12 12 12 12 12
CENTRE ASSIGNMENTS   12 12 12 12 13 13 13 13 13 13 13 13 13 13 13 13 13 13 13 14
CENTRE ASSIGNMENTS   14 14 14 14 14 14 14 14 14 14 14 14 14 14 15 15 15 16 16 16
CENTRE ASSIGNMENTS   17 17 17 18 18 18 19 19 19 20 20 20 21 21 21 22 22 22 23 23
CENTRE ASSIGNMENTS   23 24 24 24 25 25 25 26 26 26
TYPE ASSIGNMENTS      1  1  1  1  1  1  2  2  2  3  3  3  4  4  4  1  1  1  2  2
TYPE ASSIGNMENTS      2  3  3  3  4  4  4  1  1  1  1  1  1  2  2  2  3  3  3  4
TYPE ASSIGNMENTS      4  4  1  1  1  2  2  2  3  3  3  4  4  4  1  1  1  1  1  1
TYPE ASSIGNMENTS      2  2  2  3  3  3  4  4  4  1  1  1  1  1  1  2  2  2  3  3
TYPE ASSIGNMENTS      3  4  4  4  1  1  1  1  1  1  2  2  2  3  3  3  4  4  4  1
TYPE ASSIGNMENTS      1  1  1  1  1  2  2  2  3  3  3  4  4  4  1  1  1  1  1  1
TYPE ASSIGNMENTS      2  2  2  3  3  3  4  4  4  1  1  1  1  1  1  2  2  2  3  3
TYPE ASSIGNMENTS      3  4  4  4  1  1  1  1  1  1  2  2  2  3  3  3  4  4  4  1
TYPE ASSIGNMENTS      1  1  1  1  1  2  2  2  3  3  3  4  4  4  1  1  1  1  1  1
TYPE ASSIGNMENTS      2  2  2  3  3  3  4  4  4  1  1  1  1  1  1  2  2  2  3  3
TYPE ASSIGNMENTS      3  4  4  4  1  1  1  1  1  1  2  2  2  3  3  3  4  4  4  1
TYPE ASSIGNMENTS      1  1  1  1  1  2  2  2  3  3  3  4  4  4  1  1  1  1  1  1
TYPE ASSIGNMENTS      1  1  1  1  1  1  1  1  1  1  1  1  1  1  1  1  1  1  1  1
TYPE ASSIGNMENTS      1  1  1  1  1  1  1  1  1  1
EXPONENTS  0.5331257D+03 0.9710952D+02 0.2628163D+02 0.3332975D+02 0.7745118D+01
EXPONENTS  0.2518953D+01 0.3332975D+02 0.7745118D+01 0.2518953D+01 0.3332975D+02
EXPONENTS  0.7745118D+01 0.2518953D+01 0.3332975D+02 0.7745118D+01 0.2518953D+01
EXPONENTS  0.2029194D+01 0.5661401D+00 0.2215834D+00 0.2029194D+01 0.5661401D+00
EXPONENTS  0.2215834D+00 0.2029194D+01 0.5661401D+00 0.2215834D+00 0.2029194D+01
EXPONENTS  0.5661401D+00 0.2215834D+00 0.5331257D+03 0.9710952D+02 0.2628163D+02
EXPONENTS  0.3332975D+02 0.7745118D+01 0.2518953D+01 0.3332975D+02 0.7745118D+01
EXPONENTS  0.2518953D+01 0.3332975D+02 0.7745118D+01 0.2518953D+01 0.3332975D+02
EXPONENTS  0.7745118D+01 0.2518953D+01 0.2029194D+01 0.5661401D+00 0.2215834D+00
EXPONENTS  0.2029194D+01 0.5661401D+00 0.2215834D+00 0.2029194D+01 0.5661401D+00
EXPONENTS  0.2215834D+00 0.2029194D+01 0.5661401D+00 0.2215834D+00 0.1307093D+03
EXPONENTS  0.2380887D+02 0.6443608D+01 0.5033151D+01 0.1169596D+01 0.3803890D+00
EXPONENTS  0.5033151D+01 0.1169596D+01 0.3803890D+00 0.5033151D+01 0.1169596D+01
EXPONENTS  0.3803890D+00 0.5033151D+01 0.1169596D+01 0.3803890D+00 0.1307093D+03
EXPONENTS  0.2380887D+02 0.6443608D+01 0.5033151D+01 0.1169596D+01 0.3803890D+00
EXPONENTS  0.5033151D+01 0.1169596D+01 0.3803890D+00 0.5033151D+01 0.1169596D+01
EXPONENTS  0.3803890D+00 0.5033151D+01 0.1169596D+01 0.3803890D+00 0.1307093D+03
EXPONENTS  0.2380887D+02 0.6443608D+01 0.5033151D+01 0.1169596D+01 0.3803890D+00
EXPONENTS  0.5033151D+01 0.1169596D+01 0.3803890D+00 0.5033151D+01 0.1169596D+01
EXPONENTS  0.3803890D+00 0.5033151D+01 0.1169596D+01 0.3803890D+00 0.1307093D+03
EXPONENTS  0.2380887D+02 0.6443608D+01 0.5033151D+01 0.1169596D+01 0.3803890D+00
EXPONENTS  0.5033151D+01 0.1169596D+01 0.3803890D+00 0.5033151D+01 0.1169596D+01
EXPONENTS  0.3803890D+00 0.5033151D+01 0.1169596D+01 0.3803890D+00 0.9910617D+02
EXPONENTS  0.1805231D+02 0.4885660D+01 0.3780456D+01 0.8784966D+00 0.2857144D+00
EXPONENTS  0.3780456D+01 0.8784966D+00 0.2857144D+00 0.3780456D+01 0.8784966D+00
EXPONENTS  0.2857144D+00 0.3780456D+01 0.8784966D+00 0.2857144D+00 0.9910617D+02
EXPONENTS  0.1805231D+02 0.4885660D+01 0.3780456D+01 0.8784966D+00 0.2857144D+00
EXPONENTS  0.3780456D+01 0.8784966D+00 0.2857144D+00 0.3780456D+01 0.8784966D+00
EXPONENTS  0.2857144D+00 0.3780456D+01 0.8784966D+00 0.2857144D+00 0.7161684D+02
EXPONENTS  0.1304510D+02 0.3530512D+01 0.2941249D+01 0.6834831D+00 0.2222899D+00
EXPONENTS  0.2941249D+01 0.6834831D+00 0.2222899D+00 0.2941249D+01 0.6834831D+00
EXPONENTS  0.2222899D+00 0.2941249D+01 0.6834831D+00 0.2222899D+00 0.7161684D+02
EXPONENTS  0.1304510D+02 0.3530512D+01 0.2941249D+01 0.6834831D+00 0.2222899D+00
EXPONENTS  0.2941249D+01 0.6834831D+00 0.2222899D+00 0.2941249D+01 0.6834831D+00
EXPONENTS  0.2222899D+00 0.2941249D+01 0.6834831D+00 0.2222899D+00 0.7161684D+02
EXPONENTS  0.1304510D+02 0.3530512D+01 0.2941249D+01 0.6834831D+00 0.2222899D+00
EXPONENTS  0.2941249D+01 0.6834831D+00 0.2222899D+00 0.2941249D+01 0.6834831D+00
EXPONENTS  0.2222899D+00 0.2941249D+01 0.6834831D+00 0.2222899D+00 0.7161684D+02
EXPONENTS  0.1304510D+02 0.3530512D+01 0.2941249D+01 0.6834831D+00 0.2222899D+00
EXPONENTS  0.2941249D+01 0.6834831D+00 0.2222899D+00 0.2941249D+01 0.6834831D+00
EXPONENTS  0.2222899D+00 0.2941249D+01 0.6834831D+00 0.2222899D+00 0.7161684D+02
EXPONENTS  0.1304510D+02 0.3530512D+01 0.2941249D+01 0.6834831D+00 0.2222899D+00
EXPONENTS  0.2941249D+01 0.6834831D+00 0.2222899D+00 0.2941249D+01 0.6834831D+00
EXPONENTS  0.2222899D+00 0.2941249D+01 0.6834831D+00 0.2222899D+00 0.7161684D+02
EXPONENTS  0.1304510D+02 0.3530512D+01 0.2941249D+01 0.6834831D+00 0.2222899D+00
EXPONENTS  0.2941249D+01 0.6834831D+00 0.2222899D+00 0.2941249D+01 0.6834831D+00
EXPONENTS  0.2222899D+00 0.2941249D+01 0.6834831D+00 0.2222899D+00 0.3425251D+01
EXPONENTS  0.6239137D+00 0.1688554D+00 0.3425251D+01 0.6239137D+00 0.1688554D+00
EXPONENTS  0.3425251D+01 0.6239137D+00 0.1688554D+00 0.3425251D+01 0.6239137D+00
EXPONENTS  0.1688554D+00 0.3425251D+01 0.6239137D+00 0.1688554D+00 0.3425251D+01
EXPONENTS  0.6239137D+00 0.1688554D+00 0.3425251D+01 0.6239137D+00 0.1688554D+00
EXPONENTS  0.3425251D+01 0.6239137D+00 0.1688554D+00 0.3425251D+01 0.6239137D+00
EXPONENTS  0.1688554D+00 0.3425251D+01 0.6239137D+00 0.1688554D+00 0.3425251D+01
EXPONENTS  0.6239137D+00 0.1688554D+00 0.3425251D+01 0.6239137D+00 0.1688554D+00
MO    1     MO 0.0        OCC NO =    2.0000021  ORB. ENERGY =    0.000000
  0.90556292D+00  0.87582103D+00  0.27295516D+00  0.20942455D+00 -0.28012225D+00
 -0.21141244D+00  0.29863263D+01  0.18778821D+01  0.29748808D+00 -0.51659899D+01
 -0.32485131D+01 -0.51461905D+00 -0.10224815D+02 -0.64296379D+01 -0.10185627D+01
  0.63507644D-02 -0.25042857D-02 -0.49459335D-02  0.44303372D-03  0.50498473D-02
  0.12135256D-02 -0.86731989D-03 -0.98860036D-02 -0.23756993D-02 -0.14428667D-02
 -0.16446280D-01 -0.39521951D-02  0.90752696D+00  0.87772057D+00  0.27354716D+00
  0.20982273D+00 -0.28065485D+00 -0.21181440D+00 -0.29924857D+01 -0.18817553D+01
 -0.29810165D+00  0.32862391D+00  0.20664753D+00  0.32736441D-01  0.11274213D+02
  0.70895277D+01  0.11231003D+01  0.61910087D-02 -0.24412896D-02 -0.48215169D-02
 -0.45496002D-03 -0.51857872D-02 -0.12461933D-02 -0.80756999D-04 -0.92049542D-03
 -0.22120368D-03  0.16582329D-02  0.18901096D-01  0.45421105D-02  0.97060693D-03
  0.93872877D-03  0.29256075D-03  0.51856784D-05 -0.69362639D-05 -0.52349018D-05
  0.27992945D-04  0.17602715D-04  0.27885658D-05  0.54775923D-04  0.34444570D-04
  0.54565986D-05 -0.68166163D-04 -0.42864712D-04 -0.67904906D-05  0.51449027D-03
  0.49759259D-03  0.15507788D-03  0.59284288D-05 -0.79297524D-05 -0.59847025D-05
 -0.13332427D-03 -0.83837880D-04 -0.13281329D-04 -0.11015194D-04 -0.69266498D-05
 -0.10972977D-05 -0.14341674D-03 -0.90184296D-04 -0.14286708D-04  0.90918639D-03
  0.87932549D-03  0.27404735D-03  0.85139974D-06 -0.11388159D-05 -0.85948138D-06
 -0.21721382D-04 -0.13658988D-04 -0.21638132D-05  0.79902401D-04  0.50244774D-04
  0.79596164D-05 -0.35636594D-04 -0.22409247D-04 -0.35500012D-05 -0.25483063D-04
 -0.24646109D-04 -0.76811157D-05 -0.89556903D-05  0.11978959D-04  0.90406993D-05
 -0.26989809D-04 -0.16971916D-04 -0.26886367D-05  0.11037223D-03  0.69405019D-04
  0.10994921D-04 -0.60507946D-04 -0.38049020D-04 -0.60276040D-05  0.17534239D-02
  0.16958352D-02  0.52851777D-03 -0.23901432D-04  0.31970097D-04  0.24128309D-04
 -0.76083034D-04 -0.47843053D-04 -0.75791435D-05 -0.76024386D-04 -0.47806174D-04
 -0.75733012D-05 -0.31865208D-04 -0.20037698D-04 -0.31743080D-05  0.14599134D-02
  0.14119647D-02  0.44004773D-03 -0.15579269D-04  0.20838531D-04  0.15727150D-04
  0.10210512D-03  0.64206437D-04  0.10171378D-04 -0.46011039D-04 -0.28932976D-04
 -0.45834695D-05  0.75793064D-04  0.47660712D-04  0.75502576D-05  0.65375712D-02
  0.63228542D-02  0.19705575D-02  0.68749251D-04 -0.91957677D-04 -0.69401831D-04
  0.12747275D-03  0.80158283D-04  0.12698419D-04 -0.18216303D-03 -0.11454900D-03
 -0.18146486D-04 -0.18695771D-04 -0.11756403D-04 -0.18624117D-05  0.41435840D-02
  0.40074940D-02  0.12489608D-02  0.68370622D-04 -0.91451231D-04 -0.69019608D-04
 -0.93986971D-04 -0.59101530D-04 -0.93626753D-05 -0.18657445D-03 -0.11732302D-03
 -0.18585938D-04  0.51486736D-04  0.32376241D-04  0.51289405D-05  0.17577681D-01
  0.17000368D-01  0.52982720D-02 -0.32085912D-03  0.42917499D-03  0.32390477D-03
 -0.10063464D-02 -0.63281759D-03 -0.10024894D-03 -0.17228841D-03 -0.10833957D-03
 -0.17162809D-04  0.12975858D-02  0.81595675D-03  0.12926126D-03  0.19540980D-01
  0.18899186D-01  0.58900506D-02 -0.30781987D-03  0.41173395D-03  0.31074175D-03
  0.95345497D-03  0.59955807D-03  0.94980072D-04 -0.75455739D-03 -0.47448594D-03
 -0.75166544D-04 -0.11108331D-02 -0.69852165D-03 -0.11065756D-03  0.41545555D-02
  0.40181052D-02  0.12522679D-02  0.47142074D-05 -0.63056332D-05 -0.47589555D-05
  0.22205621D-04  0.13963491D-04  0.22120515D-05 -0.63304404D-04 -0.39807508D-04
 -0.63061780D-05 -0.22646298D-04 -0.14240600D-04 -0.22559503D-05  0.25662612D-02
  0.24819761D-02  0.77352355D-03  0.40610756D-05 -0.54320167D-05 -0.40996240D-05
  0.25483502D-04  0.16024710D-04  0.25385833D-05 -0.68118922D-04 -0.42835006D-04
 -0.67857846D-05  0.17467461D-04  0.10984008D-04  0.17400514D-05  0.14425935D-03
  0.13952136D-03  0.43482715D-04  0.11452351D-03  0.11076216D-03  0.34519726D-04
  0.98042608D-04  0.94822542D-04  0.29552045D-04  0.55185444D-04  0.53372959D-04
  0.16634020D-04  0.10764766D-03  0.10411213D-03  0.32447203D-04  0.28713941D-04
  0.27770874D-04  0.86549683D-05 -0.30661967D-05 -0.29654919D-05 -0.92421431D-06
 -0.14068684D-04 -0.13606619D-04 -0.42405887D-05 -0.59092709D-05 -0.57151896D-05
 -0.17811750D-05  0.12993173D-04  0.12566431D-04  0.39164076D-05 -0.57286197D-05
 -0.55404715D-05 -0.17267230D-05 -0.33744689D-06 -0.32636394D-06 -0.10171339D-06
MO    2     MO 0.0        OCC NO =    2.0000015  ORB. ENERGY =    0.000000
 -0.89873668D-01 -0.86921899D-01 -0.27089759D-01 -0.20844153D-01  0.27880739D-01
  0.21042009D-01  0.37115852D+01  0.23339444D+01  0.36973600D+00  0.23193836D+01
  0.14584906D+01  0.23104942D+00 -0.23612490D+01 -0.14848168D+01 -0.23521992D+00
 -0.11088548D-02  0.43725275D-03  0.86356882D-03  0.19692212D-03  0.22445845D-02
  0.53939470D-03  0.74401488D-03  0.84805317D-02  0.20379512D-02 -0.66604571D-03
 -0.75918129D-02 -0.18243838D-02 -0.10176162D+01 -0.98419413D+00 -0.30673032D+00
 -0.23232750D+00  0.31075680D+00  0.23453279D+00 -0.11441852D+02 -0.71949436D+01
 -0.11397999D+01  0.10664763D+02  0.67062890D+01  0.10623889D+01 -0.39948074D+01
 -0.25120421D+01 -0.39794967D+00 -0.73055779D-02  0.28807957D-02  0.56895360D-02
 -0.17295473D-02 -0.19713961D-01 -0.47374496D-02  0.18233715D-02  0.20783402D-01
  0.49944462D-02 -0.68869146D-03 -0.78499368D-02 -0.18864134D-02  0.74126280D-04
  0.71691710D-04  0.22343175D-04 -0.31842888D-05  0.42592436D-05  0.32145147D-05
 -0.31083388D-03 -0.19546069D-03 -0.30964257D-04 -0.21429374D-03 -0.13475365D-03
 -0.21347243D-04  0.11642277D-03  0.73209761D-04  0.11597656D-04  0.16715048D-02
  0.16166067D-02  0.50382570D-03 -0.16646219D-04  0.22265663D-04  0.16804228D-04
  0.66083713D-04  0.41555212D-04  0.65830437D-05  0.19602364D-03  0.12326492D-03
  0.19527235D-04  0.21589448D-03  0.13576025D-03  0.21506704D-04 -0.11649606D-01
 -0.11266992D-01 -0.35114293D-02 -0.48775778D-04  0.65241543D-04  0.49238766D-04
  0.10259299D-03  0.64513222D-04  0.10219978D-04 -0.19988357D-03 -0.12569215D-03
 -0.19911749D-04  0.54636333D-04  0.34356793D-04  0.54426932D-05  0.50262929D-02
  0.48612117D-02  0.15150274D-02  0.21448557D-04 -0.28689178D-04 -0.21652150D-04
  0.13328326D-03  0.83812089D-04  0.13277243D-04  0.95612630D-06  0.60123787D-06
  0.95246181D-07  0.59012198D-04  0.37108454D-04  0.58786025D-05  0.38907672D-01
  0.37629807D-01  0.11727567D-01  0.49622233D-04 -0.66373746D-04 -0.50093256D-04
 -0.25469749D-04 -0.16016062D-04 -0.25372133D-05  0.33508955D-04  0.21071330D-04
  0.33380528D-05  0.69222421D-03  0.43528916D-03  0.68957116D-04  0.20833365D+00
  0.20149123D+00  0.62796017D-01  0.18667913D-03 -0.24969842D-03 -0.18845112D-03
  0.24992953D-02  0.15716239D-02  0.24897164D-03  0.11222839D-02  0.70572223D-03
  0.11179826D-03  0.24750044D-02  0.15563492D-02  0.24655186D-03  0.64724374D-02
  0.62598597D-02  0.19509248D-02 -0.58452481D-04  0.78184915D-04  0.59007322D-04
 -0.29506757D-03 -0.18554640D-03 -0.29393668D-04  0.16536697D-03  0.10398719D-03
  0.16473317D-04 -0.76869550D-03 -0.48337636D-03 -0.76574937D-04 -0.34027700D-01
 -0.32910110D-01 -0.10256644D-01  0.16153310D-03 -0.21606357D-03 -0.16306640D-03
  0.14518633D-03  0.91297061D-04  0.14462988D-04 -0.88794110D-04 -0.55836119D-04
 -0.88453794D-05  0.25201938D-03  0.15847655D-03  0.25105348D-04  0.39042285D-01
  0.37759998D-01  0.11768142D-01  0.23893936D-03 -0.31960070D-03 -0.24120741D-03
 -0.18460747D-03 -0.11608613D-03 -0.18389993D-04  0.11575979D-02  0.72792864D-03
  0.11531613D-03 -0.18674955D-03 -0.11743313D-03 -0.18603381D-04  0.58542838D-01
  0.56620084D-01  0.17646007D-01  0.12559782D-02 -0.16799724D-02 -0.12679002D-02
 -0.26796466D-02 -0.16850337D-02 -0.26693765D-03  0.27604060D-02  0.17358174D-02
  0.27498263D-03 -0.17958690D-02 -0.11292906D-02 -0.17889861D-03 -0.90349253D-03
 -0.87381864D-03 -0.27233110D-03  0.30321769D-04 -0.40557815D-04 -0.30609588D-04
  0.15062122D-03  0.94714663D-04  0.15004394D-04  0.72244866D-04  0.45429510D-04
  0.71967977D-05 -0.10045332D-04 -0.63167740D-05 -0.10006831D-05  0.56482506D-02
  0.54627421D-02  0.17024981D-02  0.22003150D-04 -0.29430991D-04 -0.22212008D-04
 -0.29328248D-03 -0.18442390D-03 -0.29215844D-04  0.13585558D-03  0.85429635D-04
  0.13533490D-04 -0.44016097D-04 -0.27678503D-04 -0.43847399D-05  0.15655278D-03
  0.15141103D-03  0.47188205D-04  0.21332059D-03  0.20631438D-03  0.64299182D-04
 -0.51117164D-03 -0.49438295D-03 -0.15407757D-03 -0.11045339D-03 -0.10682571D-03
 -0.33292909D-04 -0.35323963D-03 -0.34163799D-03 -0.10647364D-03 -0.11711182D-03
 -0.11326545D-03 -0.35299894D-04  0.23956949D-04  0.23170118D-04  0.72211136D-05
 -0.25876117D-04 -0.25026254D-04 -0.77995901D-05 -0.11128108D-03 -0.10762622D-03
 -0.33542391D-04 -0.12043867D-03 -0.11648303D-03 -0.36302674D-04 -0.19908621D-04
 -0.19254752D-04 -0.60008651D-05 -0.16783733D-04 -0.16232495D-04 -0.50589598D-05
MO    3     MO 0.0        OCC NO =    2.0000015  ORB. ENERGY =    0.000000
 -0.11409133D+01 -0.11034416D+01 -0.34389456D+00 -0.26026591D+00  0.34812668D+00
  0.26273640D+00  0.11292589D+02  0.71010829D+01  0.11249308D+01  0.11371977D+02
  0.71510042D+01  0.11328392D+01 -0.27404866D+00 -0.17232915D+00 -0.27299833D-01
 -0.76847625D-02  0.30303189D-02  0.59848425D-02  0.18841299D-02  0.21475946D-01
  0.51608712D-02  0.17702887D-02  0.20178345D-01  0.48490455D-02  0.10161764D-03
  0.11582720D-02  0.27834362D-03  0.48141974D+00  0.46560821D+00  0.14510974D+00
  0.10957322D+00 -0.14656304D+00 -0.11061331D+00  0.21757202D+01  0.13681512D+01
  0.21673814D+00 -0.22074956D+01 -0.13881325D+01 -0.21990350D+00  0.34544410D+01
  0.21722452D+01  0.34412013D+00  0.28279279D-02 -0.11151318D-02 -0.22023717D-02
  0.73829554D-03  0.84153408D-02  0.20222852D-02  0.88194609D-04  0.10052718D-02
  0.24157623D-03  0.67121577D-03  0.76507429D-02  0.18385452D-02  0.12137423D-02
  0.11738787D-02  0.36584672D-03  0.17042781D-04 -0.22796097D-04 -0.17204554D-04
 -0.77102705D-04 -0.48484250D-04 -0.76807198D-05 -0.19039209D-03 -0.11972366D-03
 -0.18966238D-04  0.18377682D-03  0.11556379D-03  0.18307246D-04  0.13761932D-01
  0.13309941D-01  0.41481273D-02  0.57022574D-04 -0.76272299D-04 -0.57563842D-04
 -0.18848211D-03 -0.11852261D-03 -0.18775973D-04  0.21934107D-03  0.13792755D-03
  0.21850041D-04  0.20627229D-03  0.12970955D-03  0.20548173D-04  0.15623466D-01
  0.15110336D-01  0.47092316D-02  0.18817657D-04 -0.25170136D-04 -0.18996277D-04
 -0.26450385D-03 -0.16632712D-03 -0.26349011D-04  0.27569436D-03  0.17336401D-03
  0.27463773D-04  0.17618808D-03  0.11079179D-03  0.17551281D-04  0.72887860D-02
  0.70493965D-02  0.21969890D-02  0.11676452D-04 -0.15618198D-04 -0.11787287D-04
  0.58774339D-04  0.36958881D-04  0.58549078D-05 -0.23921719D-03 -0.15042619D-03
 -0.23830035D-04 -0.36963872D-04 -0.23243874D-04 -0.36822202D-05 -0.61176504D-01
 -0.59167251D-01 -0.18439848D-01 -0.67030098D-04  0.89658171D-04  0.67666359D-04
 -0.11077617D-03 -0.69659026D-04 -0.11035160D-04 -0.28232418D-03 -0.17753302D-03
 -0.28124213D-04 -0.85602809D-03 -0.53829343D-03 -0.85274724D-04 -0.15962768D+00
 -0.15438494D+00 -0.48115042D-01 -0.15896359D-03  0.21262664D-03  0.16047250D-03
 -0.20618953D-02 -0.12965751D-02 -0.20539928D-03 -0.79708594D-03 -0.50122903D-03
 -0.79403100D-04 -0.21188058D-02 -0.13323620D-02 -0.21106852D-03 -0.34467959D-01
 -0.33335909D-01 -0.10389347D-01  0.14686271D-03 -0.19644074D-03 -0.14825676D-03
  0.35398114D-03  0.22259284D-03  0.35262445D-04 -0.73887338D-04 -0.46462341D-04
 -0.73604154D-05  0.46485381D-03  0.29231255D-03  0.46307219D-04  0.18104482D-01
  0.17509867D-01  0.54570606D-02 -0.16496848D-03  0.22065867D-03  0.16653439D-03
  0.15442006D-03  0.97103475D-04  0.15382822D-04  0.47424625D-03  0.29821877D-03
  0.47242864D-04  0.59150203D-03  0.37195235D-03  0.58923502D-04  0.55846444D-01
  0.54012249D-01  0.16833259D-01  0.12645435D-02 -0.16914291D-02 -0.12765468D-02
  0.32652135D-02  0.20532539D-02  0.32526991D-03  0.30295400D-02  0.19050561D-02
  0.30179289D-03  0.62255008D-03  0.39147620D-03  0.62016407D-04  0.14101359D-01
  0.13638221D-01  0.42504377D-02 -0.43467133D-03  0.58140802D-03  0.43879730D-03
  0.16932261D-02  0.10647460D-02  0.16867366D-03 -0.28182427D-03 -0.17721866D-03
 -0.28074413D-04  0.56683433D-03  0.35644064D-03  0.56466186D-04  0.52900455D-02
  0.51163017D-02  0.15945278D-02 -0.98935654D-05  0.13233443D-04  0.99874768D-05
  0.12992169D-03  0.81698245D-04  0.12942375D-04  0.19357708D-03  0.12172646D-03
  0.19283517D-04  0.36258250D-04  0.22800161D-04  0.36119285D-05  0.73064596D-02
  0.70664896D-02  0.22023161D-02  0.28710022D-04 -0.38401974D-04 -0.28982543D-04
 -0.14879483D-03 -0.93566181D-04 -0.14822455D-04 -0.51555025D-04 -0.32419183D-04
 -0.51357432D-05  0.45239420D-05  0.28447761D-05  0.45066033D-06  0.61027319D-04
  0.59022966D-04  0.18394881D-04  0.46835078D-04  0.45296849D-04  0.14117049D-04
 -0.14917795D-03 -0.14427842D-03 -0.44965283D-04 -0.87433657D-04 -0.84562026D-04
 -0.26354290D-04 -0.38120212D-03 -0.36868210D-03 -0.11490211D-03 -0.51008054D-04
 -0.49332769D-04 -0.15374869D-04 -0.13678791D-03 -0.13229531D-03 -0.41230669D-04
  0.19733470D-04  0.19085353D-04  0.59480710D-05  0.33109773D-04  0.32022331D-04
  0.99799619D-05  0.43551725D-04  0.42121332D-04  0.13127379D-04 -0.20647787D-06
 -0.19969641D-06 -0.62236648D-07 -0.41778839D-04 -0.40406674D-04 -0.12592995D-04
MO    4     MO 0.0        OCC NO =    2.0000006  ORB. ENERGY =    0.000000
 -0.58607891D-01 -0.56683000D-01 -0.17665615D-01 -0.12770853D-01  0.17082048D-01
  0.12892076D-01  0.15077414D+00  0.94810825D-01  0.15019628D-01  0.10203709D+00
  0.64163659D-01  0.10164602D-01  0.17358208D-01  0.10915307D-01  0.17291680D-02
 -0.15458710D-03  0.60958058D-04  0.12039142D-03  0.62727158D-05  0.71498523D-04
  0.17181765D-04  0.26580051D-04  0.30296835D-03  0.72806134D-04 -0.12243242D-05
 -0.13955258D-04 -0.33535794D-05  0.92979114D-01  0.89925351D-01  0.28025804D-01
  0.20482181D-01 -0.27396572D-01 -0.20676602D-01  0.49223379D-01  0.30952982D-01
  0.49034724D-02 -0.13819893D+00 -0.86903198D-01 -0.13766927D-01 -0.18074750D-01
 -0.11365888D-01 -0.18005476D-02  0.25153571D-03 -0.99187631D-04 -0.19589435D-03
  0.23030988D-04  0.26251495D-03  0.63084801D-04 -0.55692587D-05 -0.63480283D-04
 -0.15254907D-04  0.10672631D-04  0.12165024D-03  0.29233692D-04  0.10481001D+00
  0.10136768D+00  0.31591877D-01  0.47780815D-04 -0.63910700D-04 -0.48234359D-04
 -0.45499032D-03 -0.28611013D-03 -0.45324651D-04 -0.52577172D-03 -0.33061937D-03
 -0.52375662D-04 -0.50140402D-03 -0.31529630D-03 -0.49948232D-04  0.39983853D-02
  0.38670642D-02  0.12051950D-02  0.52906091D-05 -0.70766170D-05 -0.53408284D-05
 -0.40602710D-05 -0.25532074D-05 -0.40447095D-06 -0.10874555D-04 -0.68382122D-05
 -0.10832877D-05  0.24676573D-04  0.15517291D-04  0.24581997D-05 -0.20223892D+00
 -0.19559668D+00 -0.60958941D-01 -0.27465900D-04  0.36737860D-04  0.27726611D-04
  0.13178487D-03  0.82869862D-04  0.13127978D-04 -0.68714510D-03 -0.43209528D-03
 -0.68451152D-04 -0.73130383D-03 -0.45986347D-03 -0.72850100D-04  0.26804305D-01
  0.25923957D-01  0.80793651D-02  0.52275139D-05 -0.69922222D-05 -0.52771344D-05
  0.11313188D-03  0.71140361D-04  0.11269828D-04 -0.10729864D-04 -0.67472265D-05
 -0.10688740D-05 -0.11019792D-03 -0.69295406D-04 -0.10977557D-04  0.34263504D+01
  0.33138169D+01  0.10327720D+01 -0.25444688D-02  0.34034326D-02  0.25686213D-02
 -0.90996100D-02 -0.57220790D-02 -0.90647345D-03 -0.62779813D-02 -0.39477631D-02
 -0.62539200D-03  0.23055251D-01  0.14497760D-01  0.22966888D-02 -0.18362631D+00
 -0.17759537D+00 -0.55348721D-01  0.13806077D-03 -0.18466743D-03 -0.13937126D-03
 -0.89968178D-03 -0.56574405D-03 -0.89623362D-04 -0.51581268D-03 -0.32435686D-03
 -0.51383575D-04 -0.96439253D-03 -0.60643590D-03 -0.96069635D-04  0.12904591D+00
  0.12480758D+00  0.38897072D-01  0.37671903D-03 -0.50389214D-03 -0.38029492D-03
 -0.16985758D-02 -0.10681100D-02 -0.16920658D-03 -0.27164487D-02 -0.17081758D-02
 -0.27060375D-03  0.12707271D-02  0.79906729D-03  0.12658568D-03  0.30119905D-02
  0.29130661D-02  0.90787545D-03 -0.48417899D-04  0.64762851D-04  0.48877490D-04
 -0.13944080D-03 -0.87684118D-04 -0.13890637D-04  0.10591049D-03  0.66599356D-04
  0.10550457D-04 -0.10202751D-03 -0.64157635D-04 -0.10163647D-04  0.16706879D-01
  0.16158166D-01  0.50357946D-02 -0.61459128D-04  0.82206549D-04  0.62042509D-04
  0.34870801D-03  0.21927696D-03  0.34737154D-04 -0.14565615D-03 -0.91592495D-04
 -0.14509790D-04  0.20032181D-03  0.12596773D-03  0.19955405D-04 -0.11383868D-02
 -0.11009982D-02 -0.34313304D-03 -0.24797395D-04  0.33168519D-04  0.25032776D-04
  0.75507234D-04  0.47480975D-04  0.75217842D-05 -0.33716567D-04 -0.21201882D-04
 -0.33587343D-05  0.35077072D-04  0.22057404D-04  0.34942634D-05 -0.14055193D+00
 -0.13593571D+00 -0.42365224D-01  0.26930980D-03 -0.36022361D-03 -0.27186613D-03
 -0.21346849D-03 -0.13423472D-03 -0.21265034D-04  0.16427899D-03  0.10330304D-03
  0.16364937D-04 -0.10337002D-03 -0.65001843D-04 -0.10297384D-04  0.11064028D-01
  0.10700646D-01  0.33349240D-02 -0.15374876D-04  0.20565139D-04  0.15520817D-04
 -0.32322404D-05 -0.20325195D-05 -0.32198524D-06 -0.15877578D-04 -0.99842468D-05
 -0.15816724D-05 -0.40941839D-05 -0.25745327D-05 -0.40784924D-06 -0.44098128D-03
 -0.42649789D-03 -0.13292076D-03 -0.10246946D-04 -0.99103997D-05 -0.30886387D-05
 -0.88893529D-04 -0.85973951D-04 -0.26794325D-04 -0.53403937D-04 -0.51649963D-04
 -0.16097037D-04 -0.12427782D-04 -0.12019610D-04 -0.37459873D-05  0.36396894D-05
  0.35201491D-05  0.10970767D-05 -0.17049873D-02 -0.16489895D-02 -0.51391799D-03
 -0.16488235D-02 -0.15946703D-02 -0.49698908D-03  0.90003629D-04  0.87047592D-04
  0.27128932D-04  0.88779162D-04  0.85863340D-04  0.26759853D-04  0.97529308D-04
  0.94326100D-04  0.29397325D-04 -0.73287036D-05 -0.70880031D-05 -0.22090210D-05
MO    5     MO 0.0        OCC NO =    2.0000005  ORB. ENERGY =    0.000000
 -0.67369536D-01 -0.65156882D-01 -0.20306554D-01 -0.15976333D-01  0.21369637D-01
  0.16127984D-01  0.36545190D-01  0.22980596D-01  0.36405125D-02  0.45621902D+00
  0.28688276D+00  0.45447050D-01  0.33259342D+00  0.20914367D+00  0.33131871D-01
 -0.50194311D-03  0.19793034D-03  0.39090999D-03  0.43286794D-04  0.49339743D-03
  0.11856802D-03  0.27219686D-04  0.31025913D-03  0.74558177D-04  0.91954170D-04
  0.10481245D-02  0.25187415D-03  0.12900761D+00  0.12477055D+00  0.38885529D-01
  0.29566956D-01 -0.39548193D-01 -0.29847611D-01  0.63112902D+00  0.39687086D+00
  0.62871013D-01 -0.27548378D+00 -0.17323160D+00 -0.27442795D-01  0.60131244D+00
  0.37812140D+00  0.59900782D-01  0.74116407D-03 -0.29226192D-03 -0.57721370D-03
  0.48980450D-04  0.55829563D-03  0.13416367D-03 -0.67716380D-04 -0.77185407D-03
 -0.18548377D-03  0.86425552D-04  0.98510750D-03  0.23673056D-03  0.15086004D-01
  0.14590526D-01  0.45472298D-02  0.16236306D-04 -0.21717372D-04 -0.16390424D-04
  0.10205938D-03  0.64177679D-04  0.10166823D-04 -0.59350104D-04 -0.37320938D-04
 -0.59122636D-05 -0.71865473D-05 -0.45190938D-05 -0.71590038D-06 -0.93618493D-01
 -0.90543731D-01 -0.28218526D-01 -0.17865368D-03  0.23896372D-03  0.18034949D-03
 -0.34685375D-04 -0.21811095D-04 -0.34552438D-05  0.14743516D-02  0.92711183D-03
  0.14687009D-03 -0.18432071D-03 -0.11590581D-03 -0.18361428D-04  0.17374661D+00
  0.16804015D+00  0.52370776D-01 -0.25258437D-05  0.33785199D-05  0.25498194D-05
  0.11178174D-04  0.70291356D-05  0.11135332D-05  0.60914777D-03  0.38304847D-03
  0.60681312D-04  0.75142488D-03  0.47251613D-03  0.74854493D-04 -0.22822274D+01
 -0.22072709D+01 -0.68790994D+00 -0.32148046D-04  0.43000609D-04  0.32453201D-04
 -0.85418705D-02 -0.53713574D-02 -0.85091326D-03  0.15139405D-02  0.95200640D-03
  0.15081381D-03  0.91061144D-02  0.57261691D-02  0.90712139D-03  0.16591236D+00
  0.16046321D+00  0.50009373D-01 -0.14353199D-03  0.19198563D-03  0.14489442D-03
 -0.45627931D-03 -0.28692068D-03 -0.45453056D-04 -0.33993774D-03 -0.21376198D-03
 -0.33863488D-04  0.10197265D-02  0.64123136D-03  0.10158182D-03  0.26984019D+01
  0.26097768D+01  0.81335345D+00 -0.22709939D-02  0.30376379D-02  0.22925506D-02
  0.11873135D-01  0.74661462D-02  0.11827630D-02  0.73400701D-02  0.46156331D-02
  0.73119382D-03  0.12756326D-01  0.80215203D-02  0.12707436D-02  0.13707022D-01
  0.13256835D-01  0.41315765D-02  0.34961502D-04 -0.46763833D-04 -0.35293362D-04
 -0.14137349D-03 -0.88899446D-04 -0.14083166D-04 -0.47056718D-04 -0.29590527D-04
 -0.46876366D-05  0.17846710D-03  0.11222490D-03  0.17778310D-04 -0.43679810D-01
 -0.42245211D-01 -0.13165987D-01  0.30370846D-03 -0.40623460D-03 -0.30659131D-03
  0.16220736D-02  0.10200034D-02  0.16158568D-03 -0.24237343D-02 -0.15241092D-02
 -0.24144450D-03  0.25625054D-02  0.16113722D-02  0.25526843D-03  0.89463389D-03
  0.86525095D-03  0.26966093D-03  0.32291111D-04 -0.43191969D-04 -0.32597624D-04
  0.15912747D-03  0.10006362D-03  0.15851759D-04 -0.33320101D-04 -0.20952574D-04
 -0.33192397D-05  0.17638626D-04  0.11091641D-04  0.17571023D-05 -0.22161208D-01
 -0.21433356D-01 -0.66798409D-02  0.40898981D-04 -0.54705691D-04 -0.41287201D-04
  0.24826963D-03  0.15611861D-03  0.24731810D-04  0.22553834D-03  0.14182456D-03
  0.22467393D-04  0.21358884D-03  0.13431039D-03  0.21277023D-04  0.53544807D-01
  0.51786206D-01  0.16139498D-01 -0.79651670D-04  0.10654054D-03  0.80407737D-04