 opt cystine m062x
GAUSSIAN             63 MOL ORBITALS    270 PRIMITIVES       26 NUCLEI
  S    1    (CENTRE  1)   0.68104575 -1.08811017 -1.49401016  CHARGE = 16.0
  S    2    (CENTRE  2)  -0.98050092 -0.16939901  1.95109647  CHARGE = 16.0
  O    3    (CENTRE  3)   8.77757312 -1.20974070  1.72048957  CHARGE =  8.0
  O    4    (CENTRE  4)  -5.80576592 -3.54697554 -0.32526409  CHARGE =  8.0
  O    5    (CENTRE  5)   6.76171804 -2.60114381 -1.92266321  CHARGE =  8.0
  O    6    (CENTRE  6)  -8.59783009 -0.89533305  1.78601767  CHARGE =  8.0
  N    7    (CENTRE  7)   6.73238959  3.52368668  0.46841849  CHARGE =  7.0
  N    8    (CENTRE  8)  -7.23039700  2.87905764 -1.90828705  CHARGE =  7.0
  C    9    (CENTRE  9)   5.10252256  1.18280579  0.43993608  CHARGE =  6.0
  C   10    (CENTRE 10)  -5.30639042  0.99425878 -1.00715385  CHARGE =  6.0
  C   11    (CENTRE 11)   3.03134806  1.42186488 -1.62373463  CHARGE =  6.0
  C   12    (CENTRE 12)  -3.30661175  2.11797984  0.85692762  CHARGE =  6.0
  C   13    (CENTRE 13)   6.87896274 -1.10010326 -0.13752398  CHARGE =  6.0
  C   14    (CENTRE 14)  -6.79365628 -1.17553147  0.32295882  CHARGE =  6.0
  H   15    (CENTRE 15)   4.17669757  0.82087828  2.28727313  CHARGE =  1.0
  H   16    (CENTRE 16)  -4.30138431  0.19895966 -2.65299162  CHARGE =  1.0
  H   17    (CENTRE 17)   2.13982422  3.29126900 -1.44926432  CHARGE =  1.0
  H   18    (CENTRE 18)   3.93663556  1.32456251 -3.48788223  CHARGE =  1.0
  H   19    (CENTRE 19)  -2.38680504  3.73485379 -0.07508548  CHARGE =  1.0
  H   20    (CENTRE 20)  -4.28624416  2.83940934  2.54102750  CHARGE =  1.0
  H   21    (CENTRE 21)   8.16024057  3.10786813  1.79494950  CHARGE =  1.0
  H   22    (CENTRE 22)   5.63808981  4.90967209  1.38990324  CHARGE =  1.0
  H   23    (CENTRE 23)  -6.20717188  4.54026823 -2.30967743  CHARGE =  1.0
  H   24    (CENTRE 24)  -8.26133334  3.35442598 -0.26978015  CHARGE =  1.0
  H   25    (CENTRE 25)   9.85969907 -2.68744012  1.13950678  CHARGE =  1.0
  H   26    (CENTRE 26)  -6.91352428 -4.75589272  0.68062024  CHARGE =  1.0
CENTRE ASSIGNMENTS    1  1  1  1  1  1  1  1  1  1  1  1  1  1  1  1  1  1  1  1
CENTRE ASSIGNMENTS    1  1  1  1  1  1  1  2  2  2  2  2  2  2  2  2  2  2  2  2
CENTRE ASSIGNMENTS    2  2  2  2  2  2  2  2  2  2  2  2  2  2  3  3  3  3  3  3
CENTRE ASSIGNMENTS    3  3  3  3  3  3  3  3  3  4  4  4  4  4  4  4  4  4  4  4
CENTRE ASSIGNMENTS    4  4  4  4  5  5  5  5  5  5  5  5  5  5  5  5  5  5  5  6
CENTRE ASSIGNMENTS    6  6  6  6  6  6  6  6  6  6  6  6  6  6  7  7  7  7  7  7
CENTRE ASSIGNMENTS    7  7  7  7  7  7  7  7  7  8  8  8  8  8  8  8  8  8  8  8
CENTRE ASSIGNMENTS    8  8  8  8  9  9  9  9  9  9  9  9  9  9  9  9  9  9  9 10
CENTRE ASSIGNMENTS   10 10 10 10 10 10 10 10 10 10 10 10 10 10 11 11 11 11 11 11
CENTRE ASSIGNMENTS   11 11 11 11 11 11 11 11 11 12 12 12 12 12 12 12 12 12 12 12
CENTRE ASSIGNMENTS   12 12 12 12 13 13 13 13 13 13 13 13 13 13 13 13 13 13 13 14
CENTRE ASSIGNMENTS   14 14 14 14 14 14 14 14 14 14 14 14 14 14 15 15 15 16 16 16
CENTRE ASSIGNMENTS   17 17 17 18 18 18 19 19 19 20 20 20 21 21 21 22 22 22 23 23
CENTRE ASSIGNMENTS   23 24 24 24 25 25 25 26 26 26
TYPE ASSIGNMENTS      1  1  1  1  1  1  2  2  2  3  3  3  4  4  4  1  1  1  2  2
TYPE ASSIGNMENTS      2  3  3  3  4  4  4  1  1  1  1  1  1  2  2  2  3  3  3  4
TYPE ASSIGNMENTS      4  4  1  1  1  2  2  2  3  3  3  4  4  4  1  1  1  1  1  1
TYPE ASSIGNMENTS      2  2  2  3  3  3  4  4  4  1  1  1  1  1  1  2  2  2  3  3
TYPE ASSIGNMENTS      3  4  4  4  1  1  1  1  1  1  2  2  2  3  3  3  4  4  4  1
TYPE ASSIGNMENTS      1  1  1  1  1  2  2  2  3  3  3  4  4  4  1  1  1  1  1  1
TYPE ASSIGNMENTS      2  2  2  3  3  3  4  4  4  1  1  1  1  1  1  2  2  2  3  3
TYPE ASSIGNMENTS      3  4  4  4  1  1  1  1  1  1  2  2  2  3  3  3  4  4  4  1
TYPE ASSIGNMENTS      1  1  1  1  1  2  2  2  3  3  3  4  4  4  1  1  1  1  1  1
TYPE ASSIGNMENTS      2  2  2  3  3  3  4  4  4  1  1  1  1  1  1  2  2  2  3  3
TYPE ASSIGNMENTS      3  4  4  4  1  1  1  1  1  1  2  2  2  3  3  3  4  4  4  1
TYPE ASSIGNMENTS      1  1  1  1  1  2  2  2  3  3  3  4  4  4  1  1  1  1  1  1
TYPE ASSIGNMENTS      1  1  1  1  1  1  1  1  1  1  1  1  1  1  1  1  1  1  1  1
TYPE ASSIGNMENTS      1  1  1  1  1  1  1  1  1  1
EXPONENTS  0.5331257D+03 0.9710952D+02 0.2628163D+02 0.3332975D+02 0.7745118D+01
EXPONENTS  0.2518953D+01 0.3332975D+02 0.7745118D+01 0.2518953D+01 0.3332975D+02
EXPONENTS  0.7745118D+01 0.2518953D+01 0.3332975D+02 0.7745118D+01 0.2518953D+01
EXPONENTS  0.2029194D+01 0.5661401D+00 0.2215834D+00 0.2029194D+01 0.5661401D+00
EXPONENTS  0.2215834D+00 0.2029194D+01 0.5661401D+00 0.2215834D+00 0.2029194D+01
EXPONENTS  0.5661401D+00 0.2215834D+00 0.5331257D+03 0.9710952D+02 0.2628163D+02
EXPONENTS  0.3332975D+02 0.7745118D+01 0.2518953D+01 0.3332975D+02 0.7745118D+01
EXPONENTS  0.2518953D+01 0.3332975D+02 0.7745118D+01 0.2518953D+01 0.3332975D+02
EXPONENTS  0.7745118D+01 0.2518953D+01 0.2029194D+01 0.5661401D+00 0.2215834D+00
EXPONENTS  0.2029194D+01 0.5661401D+00 0.2215834D+00 0.2029194D+01 0.5661401D+00
EXPONENTS  0.2215834D+00 0.2029194D+01 0.5661401D+00 0.2215834D+00 0.1307093D+03
EXPONENTS  0.2380887D+02 0.6443608D+01 0.5033151D+01 0.1169596D+01 0.3803890D+00
EXPONENTS  0.5033151D+01 0.1169596D+01 0.3803890D+00 0.5033151D+01 0.1169596D+01
EXPONENTS  0.3803890D+00 0.5033151D+01 0.1169596D+01 0.3803890D+00 0.1307093D+03
EXPONENTS  0.2380887D+02 0.6443608D+01 0.5033151D+01 0.1169596D+01 0.3803890D+00
EXPONENTS  0.5033151D+01 0.1169596D+01 0.3803890D+00 0.5033151D+01 0.1169596D+01
EXPONENTS  0.3803890D+00 0.5033151D+01 0.1169596D+01 0.3803890D+00 0.1307093D+03
EXPONENTS  0.2380887D+02 0.6443608D+01 0.5033151D+01 0.1169596D+01 0.3803890D+00
EXPONENTS  0.5033151D+01 0.1169596D+01 0.3803890D+00 0.5033151D+01 0.1169596D+01
EXPONENTS  0.3803890D+00 0.5033151D+01 0.1169596D+01 0.3803890D+00 0.1307093D+03
EXPONENTS  0.2380887D+02 0.6443608D+01 0.5033151D+01 0.1169596D+01 0.3803890D+00
EXPONENTS  0.5033151D+01 0.1169596D+01 0.3803890D+00 0.5033151D+01 0.1169596D+01
EXPONENTS  0.3803890D+00 0.5033151D+01 0.1169596D+01 0.3803890D+00 0.9910617D+02
EXPONENTS  0.1805231D+02 0.4885660D+01 0.3780456D+01 0.8784966D+00 0.2857144D+00
EXPONENTS  0.3780456D+01 0.8784966D+00 0.2857144D+00 0.3780456D+01 0.8784966D+00
EXPONENTS  0.2857144D+00 0.3780456D+01 0.8784966D+00 0.2857144D+00 0.9910617D+02
EXPONENTS  0.1805231D+02 0.4885660D+01 0.3780456D+01 0.8784966D+00 0.2857144D+00
EXPONENTS  0.3780456D+01 0.8784966D+00 0.2857144D+00 0.3780456D+01 0.8784966D+00
EXPONENTS  0.2857144D+00 0.3780456D+01 0.8784966D+00 0.2857144D+00 0.7161684D+02
EXPONENTS  0.1304510D+02 0.3530512D+01 0.2941249D+01 0.6834831D+00 0.2222899D+00
EXPONENTS  0.2941249D+01 0.6834831D+00 0.2222899D+00 0.2941249D+01 0.6834831D+00
EXPONENTS  0.2222899D+00 0.2941249D+01 0.6834831D+00 0.2222899D+00 0.7161684D+02
EXPONENTS  0.1304510D+02 0.3530512D+01 0.2941249D+01 0.6834831D+00 0.2222899D+00
EXPONENTS  0.2941249D+01 0.6834831D+00 0.2222899D+00 0.2941249D+01 0.6834831D+00
EXPONENTS  0.2222899D+00 0.2941249D+01 0.6834831D+00 0.2222899D+00 0.7161684D+02
EXPONENTS  0.1304510D+02 0.3530512D+01 0.2941249D+01 0.6834831D+00 0.2222899D+00
EXPONENTS  0.2941249D+01 0.6834831D+00 0.2222899D+00 0.2941249D+01 0.6834831D+00
EXPONENTS  0.2222899D+00 0.2941249D+01 0.6834831D+00 0.2222899D+00 0.7161684D+02
EXPONENTS  0.1304510D+02 0.3530512D+01 0.2941249D+01 0.6834831D+00 0.2222899D+00
EXPONENTS  0.2941249D+01 0.6834831D+00 0.2222899D+00 0.2941249D+01 0.6834831D+00
EXPONENTS  0.2222899D+00 0.2941249D+01 0.6834831D+00 0.2222899D+00 0.7161684D+02
EXPONENTS  0.1304510D+02 0.3530512D+01 0.2941249D+01 0.6834831D+00 0.2222899D+00
EXPONENTS  0.2941249D+01 0.6834831D+00 0.2222899D+00 0.2941249D+01 0.6834831D+00
EXPONENTS  0.2222899D+00 0.2941249D+01 0.6834831D+00 0.2222899D+00 0.7161684D+02
EXPONENTS  0.1304510D+02 0.3530512D+01 0.2941249D+01 0.6834831D+00 0.2222899D+00
EXPONENTS  0.2941249D+01 0.6834831D+00 0.2222899D+00 0.2941249D+01 0.6834831D+00
EXPONENTS  0.2222899D+00 0.2941249D+01 0.6834831D+00 0.2222899D+00 0.3425251D+01
EXPONENTS  0.6239137D+00 0.1688554D+00 0.3425251D+01 0.6239137D+00 0.1688554D+00
EXPONENTS  0.3425251D+01 0.6239137D+00 0.1688554D+00 0.3425251D+01 0.6239137D+00
EXPONENTS  0.1688554D+00 0.3425251D+01 0.6239137D+00 0.1688554D+00 0.3425251D+01
EXPONENTS  0.6239137D+00 0.1688554D+00 0.3425251D+01 0.6239137D+00 0.1688554D+00
EXPONENTS  0.3425251D+01 0.6239137D+00 0.1688554D+00 0.3425251D+01 0.6239137D+00
EXPONENTS  0.1688554D+00 0.3425251D+01 0.6239137D+00 0.1688554D+00 0.3425251D+01
EXPONENTS  0.6239137D+00 0.1688554D+00 0.3425251D+01 0.6239137D+00 0.1688554D+00
MO    1     MO 0.0        OCC NO =    2.0000000  ORB. ENERGY =  -88.775941
  0.12110763D+02  0.11713003D+02  0.36504314D+01 -0.16867819D-01  0.22562071D-01
  0.17027932D-01  0.79944946D-03  0.50271528D-03  0.79638546D-04  0.25444728D-02
  0.16000328D-02  0.25347208D-03  0.19697059D-02  0.12386039D-02  0.19621567D-03
  0.68306224D-03 -0.26935073D-03 -0.53196438D-03 -0.35860116D-05 -0.40874566D-04
 -0.98225412D-05 -0.10080279D-04 -0.11489841D-03 -0.27611166D-04 -0.72914082D-05
 -0.83109921D-04 -0.19972093D-04 -0.72144900D+00 -0.69775407D+00 -0.21745947D+00
  0.10592223D-02 -0.14167954D-02 -0.10692767D-02 -0.56171161D-03 -0.35321933D-03
 -0.55955877D-04  0.24049661D-03  0.15123072D-03  0.23957488D-04  0.14722048D-02
  0.92576186D-03  0.14665623D-03 -0.13644181D-03  0.53802858D-04  0.10625998D-03
  0.61290770D-05  0.69861280D-04  0.16788320D-04 -0.29308707D-05 -0.33407050D-04
 -0.80280271D-05 -0.14129025D-04 -0.16104737D-03 -0.38701193D-04 -0.88585526D-06
 -0.85676064D-06 -0.26701487D-06 -0.44299175D-06  0.59253725D-06  0.44719670D-06
 -0.70500115D-06 -0.44332364D-06 -0.70229914D-07  0.18123847D-05  0.11396762D-05
  0.18054385D-06 -0.26636494D-05 -0.16749742D-05 -0.26534406D-06  0.24155469D-06
  0.23362118D-06  0.72809516D-07  0.30835057D-07 -0.41244380D-07 -0.31127749D-07
 -0.61805541D-06 -0.38864983D-06 -0.61568662D-07 -0.27081250D-06 -0.17029417D-06
 -0.26977458D-07  0.63098310D-06  0.39677911D-06  0.62856477D-07  0.22880320D-06
  0.22128849D-06  0.68965957D-07  0.79462310D-06 -0.10628726D-05 -0.80216580D-06
 -0.65404669D-05 -0.41128211D-05 -0.65153996D-06 -0.53824798D-05 -0.33846478D-05
 -0.53618507D-06 -0.59685805D-05 -0.37532036D-05 -0.59457051D-06  0.17643558D-06
  0.17064081D-06  0.53181288D-07  0.13124713D-06 -0.17555364D-06 -0.13249295D-06
  0.71427983D-07  0.44915832D-07  0.71154225D-08 -0.37479293D-06 -0.23567985D-06
 -0.37335648D-07  0.90650737D-06  0.57003616D-06  0.90303304D-07 -0.45856938D-05
 -0.44350834D-05 -0.13822218D-05 -0.16100051D-05  0.21535119D-05  0.16252876D-05
 -0.87681963D-05 -0.55136771D-05 -0.87345909D-06 -0.39189217D-05 -0.24643231D-05
 -0.39039019D-06 -0.66754990D-05 -0.41977329D-05 -0.66499142D-06 -0.13705130D-05
 -0.13255005D-05 -0.41310062D-06 -0.82837899D-06  0.11080238D-05  0.83624211D-06
  0.14683203D-05  0.92331923D-06  0.14626928D-06 -0.23325945D-05 -0.14667980D-05
 -0.23236545D-06  0.12285344D-05  0.77253540D-06  0.12238259D-06 -0.37608460D-05
 -0.36373266D-05 -0.11335958D-05  0.19038608D-05 -0.25465676D-05 -0.19219326D-05
  0.34462592D-05  0.21671003D-05  0.34330509D-06 -0.39477042D-05 -0.24824223D-05
 -0.39325740D-06 -0.28075089D-05 -0.17654369D-05 -0.27967487D-06  0.89886508D-05
  0.86934317D-05  0.27093629D-05  0.52680327D-05 -0.70464193D-05 -0.53180378D-05
 -0.12011242D-05 -0.75529915D-06 -0.11965208D-06  0.56065830D-05  0.35255698D-05
  0.55850949D-06  0.19452972D-04  0.12232551D-04  0.19378416D-05 -0.18589814D-03
 -0.17979259D-03 -0.56033496D-04 -0.76274872D-04  0.10202380D-03  0.76998886D-04
 -0.26515877D-03 -0.16673895D-03 -0.26414251D-04 -0.27914366D-03 -0.17553302D-03
 -0.27807380D-04  0.19322309D-04  0.12150387D-04  0.19248254D-05  0.14963968D-04
  0.14472498D-04  0.45104456D-05  0.90281253D-05 -0.12075847D-04 -0.91138218D-05
 -0.21902768D-04 -0.13773048D-04 -0.21818823D-05  0.18249026D-04  0.11475477D-04
  0.18179084D-05 -0.19117083D-04 -0.12021335D-04 -0.19043814D-05 -0.37839384D-05
 -0.36596605D-05 -0.11405563D-05 -0.93803002D-06  0.12546909D-05  0.94693396D-06
 -0.89859432D-05 -0.56506022D-05 -0.89515033D-06 -0.71508010D-05 -0.44966156D-05
 -0.71233946D-06 -0.30741046D-05 -0.19330795D-05 -0.30623227D-06  0.10517155D-05
  0.10171735D-05  0.31700855D-06  0.12345799D-06 -0.16513504D-06 -0.12462988D-06
 -0.26939021D-05 -0.16939979D-05 -0.26835773D-06  0.13601147D-05  0.85527660D-06
  0.13549018D-06 -0.98006717D-06 -0.61629254D-06 -0.97631092D-07  0.31017209D-05
  0.29998494D-05  0.93492204D-06  0.21915966D-04  0.21196168D-04  0.66059198D-05
 -0.72009226D-06 -0.69644189D-06 -0.21705052D-06  0.95373698D-06  0.92241288D-06
  0.28747581D-06  0.39686602D-05  0.38383154D-05  0.11962352D-05  0.41885476D-05
  0.40509809D-05  0.12625138D-05  0.45417433D-06  0.43925764D-06  0.13689742D-06
  0.11675384D-06  0.11291923D-06  0.35191992D-07 -0.58820685D-06 -0.56888806D-06
 -0.17729756D-06 -0.38219459D-06 -0.36964197D-06 -0.11520126D-06  0.11466805D-07
  0.11090195D-07  0.34563294D-08 -0.13906797D-07 -0.13450049D-07 -0.41917928D-08
MO    2     MO 0.0        OCC NO =    2.0000000  ORB. ENERGY =  -88.775247
  0.72188778D+00  0.69817843D+00  0.21759172D+00 -0.95077415D-03  0.12717372D-02
  0.95979906D-03  0.66517401D-03  0.41827927D-03  0.66262464D-04 -0.22369410D-03
 -0.14066485D-03 -0.22283676D-04 -0.11708884D-02 -0.73628605D-03 -0.11664008D-03
 -0.55637284D-04  0.21939352D-04  0.43329951D-04 -0.66381802D-05 -0.75664209D-04
 -0.18182818D-04  0.33219301D-05  0.37864476D-04  0.90991884D-05  0.12919195D-04
  0.14725732D-03  0.35387315D-04  0.12110779D+02  0.11713019D+02  0.36504363D+01
 -0.16863720D-01  0.22556588D-01  0.17023793D-01 -0.85960222D-03 -0.54054094D-03
 -0.85630767D-04  0.13031615D-02  0.81946295D-03  0.12981670D-03 -0.27831236D-02
 -0.17501028D-02 -0.27724569D-03  0.67180285D-03 -0.26491083D-03 -0.52319564D-03
  0.42761576D-05  0.48741082D-04  0.11712939D-04 -0.56296886D-05 -0.64169084D-04
 -0.15420432D-04  0.95943452D-05  0.10935957D-03  0.26280130D-04  0.14000098D-06
  0.13540285D-06  0.42199154D-07  0.64879952D-07 -0.86782178D-07 -0.65495804D-07
  0.39605065D-06  0.24904727D-06  0.39453272D-07 -0.60875679D-07 -0.38280260D-07
 -0.60642364D-08 -0.43416833D-06 -0.27301670D-06 -0.43250432D-07  0.62156478D-06
  0.60115039D-06  0.18735232D-06  0.10629282D-05 -0.14217524D-05 -0.10730177D-05
  0.12523011D-04  0.78748056D-05  0.12475015D-05 -0.34876015D-05 -0.21930974D-05
 -0.34742348D-06  0.69297856D-08  0.43576352D-08  0.69032262D-09 -0.50547813D-06
 -0.48887644D-06 -0.15236143D-06 -0.17567425D-06  0.23497851D-06  0.17734178D-06
 -0.11185811D-05 -0.70339382D-06 -0.11142940D-06 -0.10485690D-06 -0.65936831D-07
 -0.10445502D-07  0.51121418D-06  0.32146519D-06  0.50925488D-07 -0.34202868D-06
 -0.33079525D-06 -0.10309443D-06 -0.52232362D-06  0.69865003D-06  0.52728160D-06
 -0.21650801D-05 -0.13614605D-05 -0.21567822D-06  0.88560476D-06  0.55689204D-06
  0.88221055D-07 -0.58710506D-05 -0.36918742D-05 -0.58485490D-06 -0.11071233D-05
 -0.10707614D-05 -0.33370957D-06 -0.62011685D-06  0.82945639D-06  0.62600311D-06
 -0.39748131D-06 -0.24994692D-06 -0.39595791D-07 -0.21402967D-05 -0.13458760D-05
 -0.21320937D-06  0.13229896D-05  0.83193135D-06  0.13179190D-06 -0.27307504D-05
 -0.26410629D-05 -0.82310395D-06 -0.77640287D-06  0.10385016D-05  0.78377262D-06
  0.63178817D-05  0.39728535D-05  0.62936675D-06 -0.24599610D-05 -0.15468895D-05
 -0.24505329D-06  0.53353556D-05  0.33550148D-05  0.53149071D-06  0.95210975D-05
  0.92083910D-05  0.28698533D-05  0.56801047D-05 -0.75975990D-05 -0.57340213D-05
  0.27672701D-05  0.17401337D-05  0.27566641D-06  0.40710055D-05  0.25599575D-05
  0.40554028D-06 -0.19732197D-04 -0.12408135D-04 -0.19656571D-05 -0.23440233D-05
 -0.22670373D-05 -0.70653649D-06  0.22993511D-05 -0.30755679D-05 -0.23211770D-05
 -0.29148705D-05 -0.18329488D-05 -0.29036988D-06  0.12603914D-05  0.79256796D-06
  0.12555608D-06  0.11569324D-05  0.72751013D-06  0.11524983D-06 -0.72342720D-05
 -0.69966729D-05 -0.21805573D-05  0.16521824D-06 -0.22099274D-06 -0.16678652D-06
 -0.89151903D-05 -0.56061109D-05 -0.88810216D-06 -0.10285627D-04 -0.64678784D-05
 -0.10246206D-05  0.12640353D-04  0.79485934D-05  0.12591907D-05 -0.18539182D-03
 -0.17930289D-03 -0.55880880D-04 -0.75663657D-04  0.10120625D-03  0.76381870D-04
  0.26159688D-03  0.16449914D-03  0.26059427D-04 -0.25722228D-03 -0.16174827D-03
 -0.25623643D-04  0.11528614D-03  0.72495021D-04  0.11484429D-04 -0.30318126D-07
 -0.29322371D-07 -0.91385024D-08 -0.21131459D-06  0.28265034D-06  0.21332042D-06
 -0.19024910D-06 -0.11963374D-06 -0.18951994D-07  0.19693479D-05  0.12383788D-05
  0.19618001D-06  0.24991885D-06  0.15715568D-06  0.24896100D-07 -0.80555469D-05
 -0.77909742D-05 -0.24281064D-05 -0.19976556D-05  0.26720257D-05  0.20166177D-05
  0.18879742D-04  0.11872088D-04  0.18807382D-05 -0.56882775D-05 -0.35769415D-05
 -0.56664764D-06  0.37889368D-05  0.23825852D-05  0.37744152D-06  0.21787076D-04
  0.21071512D-04  0.65670698D-05  0.26529198D-05  0.25657885D-05  0.79964422D-06
  0.54194985D-05  0.52415031D-05  0.16335476D-05  0.44560226D-05  0.43096711D-05
  0.13431362D-05  0.14810419D-06  0.14323992D-06  0.44641627D-07  0.15966091D-05
  0.15441708D-05  0.48125058D-06 -0.36643607D-06 -0.35440101D-06 -0.11045132D-06
 -0.50458486D-06 -0.48801251D-06 -0.15209218D-06  0.14034845D-05  0.13573891D-05
  0.42303891D-06  0.61766404D-06  0.59737777D-06  0.18617656D-06  0.95134130D-10
  0.92009589D-10  0.28675370D-10  0.87687281D-06  0.84807321D-06  0.26430738D-06
MO    3     MO 0.0        OCC NO =    2.0000000  ORB. ENERGY =  -19.427903
  0.18307199D-05  0.17705926D-05  0.55181636D-06  0.33157631D-06 -0.44351011D-06
 -0.33472369D-06 -0.18589319D-04 -0.11689462D-04 -0.18518072D-05 -0.31731930D-04
 -0.19953889D-04 -0.31610313D-05  0.66070789D-05  0.41547085D-05  0.65817564D-06
 -0.12970295D-05  0.51145535D-06  0.10101180D-05  0.13344349D-06  0.15210337D-05
  0.36551866D-06  0.29649379D-06  0.33795359D-05  0.81213414D-06 -0.44328480D-07
 -0.50527092D-06 -0.12142134D-06  0.25891425D-05  0.25041059D-05  0.78042043D-06
  0.86226701D-06 -0.11533518D-05 -0.87045180D-06  0.23595630D-04  0.14837565D-04
  0.23505197D-05 -0.43476715D-04 -0.27339325D-04 -0.43310085D-05 -0.47109674D-04
 -0.29623827D-04 -0.46929119D-05 -0.70301142D-06  0.27721725D-06  0.54750067D-06
 -0.22115861D-06 -0.25208401D-05 -0.60578151D-06  0.31434593D-06  0.35830206D-05
  0.86103342D-06  0.41707054D-06  0.47539103D-05  0.11424092D-05  0.23496517D-04
  0.22724808D-04  0.70823301D-05 -0.36296426D-07  0.48549402D-07  0.36640958D-07
 -0.11367089D-07 -0.71479309D-08 -0.11323523D-08 -0.20552654D-07 -0.12924060D-07
 -0.20473883D-08 -0.31083465D-07 -0.19546117D-07 -0.30964333D-08  0.42264900D+01
  0.40876772D+01  0.12739504D+01 -0.63871027D-02  0.85432659D-02  0.64477302D-02
 -0.52783869D-02 -0.33191913D-02 -0.52581567D-03  0.19129334D-02  0.12029039D-02
  0.19056018D-03  0.42485508D-02  0.26716027D-02  0.42322676D-03  0.28552172D-07
  0.27614418D-07  0.86062079D-08 -0.31633710D-09  0.42312643D-09  0.31933983D-09
  0.45794694D-08  0.28796932D-08  0.45619179D-09  0.17414888D-08  0.10950949D-08
  0.17348143D-09  0.57326899D-08  0.36048692D-08  0.57107185D-09  0.36579128D-02
  0.35377740D-02  0.11025696D-02 -0.50529185D-04  0.67586867D-04  0.51008816D-04
  0.40708306D-04  0.25598475D-04  0.40552285D-05 -0.10480953D-02 -0.65907047D-03
 -0.10440783D-03  0.40126035D-04  0.25232328D-04  0.39972247D-05  0.46654070D-08
  0.45121785D-08  0.14062490D-08 -0.14979786D-08  0.20036674D-08  0.15121977D-08
  0.30324278D-07  0.19068720D-07  0.30208056D-08 -0.16940043D-07 -0.10652353D-07
 -0.16875117D-08  0.48964385D-07  0.30790119D-07  0.48776722D-08  0.41732158D-05
  0.40361526D-05  0.12578925D-05 -0.16607142D-06  0.22213395D-06  0.16764780D-06
  0.15385644D-04  0.96749057D-05  0.15326676D-05  0.49450793D-04  0.31095985D-04
  0.49261265D-05 -0.18918528D-04 -0.11896478D-04 -0.18846020D-05 -0.33565682D-07
 -0.32463267D-07 -0.10117382D-07 -0.21769309D-07  0.29118209D-07  0.21975947D-07
 -0.13426323D-06 -0.84428325D-07 -0.13374865D-07 -0.12653490D-06 -0.79568542D-07
 -0.12604994D-07  0.13507553D-07  0.84939118D-08  0.13455783D-08 -0.73570362D-04
 -0.71154051D-04 -0.22175610D-04 -0.57977166D-04  0.77549144D-04  0.58527496D-04
  0.61212590D-04  0.38492119D-04  0.60977984D-05 -0.29932764D-03 -0.18822525D-03
 -0.29818042D-04 -0.99459620D-04 -0.62542878D-04 -0.99078427D-05  0.11243973D-05
  0.10874681D-05  0.33891631D-06  0.50243400D-06 -0.67204606D-06 -0.50720319D-06
  0.17271101D-05  0.10860532D-05  0.17204907D-06  0.18607988D-05  0.11701202D-05
  0.18536670D-06  0.58781765D-07  0.36963551D-07  0.58556475D-08 -0.18233063D-04
 -0.17634225D-04 -0.54958175D-05 -0.47044838D-05  0.62926272D-05  0.47491396D-05
 -0.17946433D-04 -0.11285199D-04 -0.17877651D-05 -0.22821020D-04 -0.14350470D-04
 -0.22733555D-05  0.65135634D-05  0.40959035D-05  0.64885992D-06  0.10847893D-07
  0.10491610D-07  0.32697766D-08  0.65019519D-08 -0.86968859D-08 -0.65636695D-08
 -0.10862079D-08 -0.68303665D-09 -0.10820448D-09  0.45089196D-08  0.28353296D-08
  0.44916385D-09 -0.29607389D-07 -0.18617921D-07 -0.29493914D-08  0.14621321D-02
  0.14141105D-02  0.44071648D-03  0.73326644D-03 -0.98080310D-03 -0.74022673D-03
 -0.16164616D-02 -0.10164744D-02 -0.16102663D-03  0.36180920D-02  0.22751534D-02
  0.36042252D-03  0.10758664D-02  0.67653369D-03  0.10717430D-03 -0.16223505D-07
 -0.15690667D-07 -0.48900956D-08 -0.71584066D-04 -0.69232992D-04 -0.21576899D-04
 -0.28451089D-07 -0.27516655D-07 -0.85757395D-08  0.51593571D-07  0.49899056D-07
  0.15551356D-07  0.37365636D-05  0.36138416D-05  0.11262766D-05 -0.59802336D-05
 -0.57838216D-05 -0.18025646D-05 -0.35871479D-08 -0.34693333D-08 -0.10812396D-08
 -0.42703620D-08 -0.41301082D-08 -0.12871743D-08  0.15512607D-06  0.15003118D-06
  0.46758166D-07 -0.18176333D-04 -0.17579358D-04 -0.54787179D-05 -0.90077841D-08
 -0.87119366D-08 -0.27151301D-08 -0.16147077D-02 -0.15616750D-02 -0.48670589D-03
MO    4     MO 0.0        OCC NO =    2.0000000  ORB. ENERGY =  -19.427797
 -0.55354509D-05 -0.53536471D-05 -0.16684980D-05 -0.19828934D-05  0.26522801D-05
  0.20017153D-05  0.45306272D-04  0.28489800D-04  0.45132629D-05 -0.27460961D-04
 -0.17268189D-04 -0.27355713D-05  0.15185015D-04  0.95487451D-05  0.15126817D-05
  0.63093747D-06 -0.24879646D-06 -0.49136995D-06 -0.30183654D-06 -0.34404343D-05
 -0.82676860D-06  0.30246486D-06  0.34475961D-05  0.82848965D-06 -0.14947363D-06
 -0.17037507D-05 -0.40942725D-06  0.12067459D-05  0.11671121D-05  0.36373786D-06
  0.32942083D-06 -0.44062697D-06 -0.33254775D-06 -0.11723815D-04 -0.73722495D-05
 -0.11678882D-05  0.42915058D-06  0.26986140D-06  0.42750580D-07 -0.20835087D-05
 -0.13101662D-05 -0.20755234D-06 -0.45662842D-06  0.18006148D-06  0.35561921D-06
  0.11275147D-06  0.12851792D-05  0.30884060D-06 -0.52130955D-08 -0.59420615D-07
 -0.14279331D-07  0.20090396D-07  0.22899709D-06  0.55030147D-07  0.42264818D+01
  0.40876692D+01  0.12739479D+01 -0.63843233D-02  0.85395481D-02  0.64449244D-02
 -0.11239279D-02 -0.70675605D-03 -0.11196203D-03 -0.38513868D-02 -0.24218554D-02
 -0.38366258D-03 -0.56755222D-02 -0.35689207D-02 -0.56537700D-03 -0.23500201D-04
 -0.22728371D-04 -0.70834406D-05  0.35797716D-07 -0.47882337D-07 -0.36137514D-07
  0.42955456D-07  0.27011543D-07  0.42790823D-08 -0.11660084D-07 -0.73321739D-08
 -0.11615395D-08 -0.31906391D-07 -0.20063595D-07 -0.31784106D-08  0.44072582D-02
  0.42625083D-02  0.13284377D-02 -0.54143856D-04  0.72421781D-04  0.54657799D-04
  0.85848672D-03  0.53983949D-03  0.85519645D-04 -0.38848753D-03 -0.24429139D-03
 -0.38699860D-04  0.46047776D-03  0.28956077D-03  0.45871292D-04 -0.20341665D-07
 -0.19673573D-07 -0.61313934D-08 -0.32706009D-09  0.43746930D-09  0.33016461D-09
 -0.41806100D-08 -0.26288797D-08 -0.41645872D-09  0.71303221D-08  0.44837379D-08
  0.71029941D-09 -0.67282962D-08 -0.42309332D-08 -0.67025090D-09 -0.76210551D-04
 -0.73707527D-04 -0.22971417D-04 -0.41749727D-04  0.55843633D-04  0.42146023D-04
  0.17404056D-03  0.10944137D-03  0.17337352D-04 -0.53492975D-04 -0.33637818D-04
 -0.53287955D-05  0.95723594D-04  0.60193565D-04  0.95356720D-05  0.64227674D-08
  0.62118210D-08  0.19359533D-08  0.47274766D-08 -0.63233818D-08 -0.47723506D-08
 -0.14746085D-07 -0.92727339D-08 -0.14689568D-08  0.13857615D-07  0.87140403D-08
  0.13804504D-08 -0.10633861D-07 -0.66868571D-08 -0.10593105D-08 -0.49824807D-04
 -0.48188385D-04 -0.15018215D-04 -0.50173996D-04  0.67111773D-04  0.50650256D-04
  0.18224412D-03  0.11459999D-03  0.18154564D-04 -0.11265871D-03 -0.70842818D-04
 -0.11222693D-04  0.10908882D-03  0.68597976D-04  0.10867072D-04 -0.54386171D-07
 -0.52599937D-07 -0.16393103D-07 -0.36466833D-07  0.48777335D-07  0.36812982D-07
  0.29329092D-07  0.18442920D-07  0.29216684D-08 -0.34464582D-07 -0.21672254D-07
 -0.34332492D-08 -0.14162876D-06 -0.89059963D-07 -0.14108594D-07  0.25416855D-04
  0.24582076D-04  0.76611594D-05  0.60996887D-05 -0.81588265D-05 -0.61575880D-05
 -0.53329814D-04 -0.33535218D-04 -0.53125420D-05  0.75384855D-04  0.47404020D-04
  0.75095932D-05  0.55068556D-05  0.34628586D-05  0.54857498D-06  0.32831398D-07
  0.31753099D-07  0.98960539D-08 -0.90898462D-08  0.12158404D-07  0.91761286D-08
 -0.19637113D-06 -0.12348343D-06 -0.19561850D-07 -0.15671873D-06 -0.98548942D-07
 -0.15611808D-07  0.37310985D-06  0.23462149D-06  0.37167986D-07  0.14614916D-02
  0.14134910D-02  0.44052341D-03  0.72649460D-03 -0.97174522D-03 -0.73339062D-03
 -0.28463363D-02 -0.17898526D-02 -0.28354273D-03  0.76190676D-04  0.47910742D-04
  0.75898665D-05 -0.28908546D-02 -0.18178469D-02 -0.28797750D-03 -0.20811092D-07
 -0.20127583D-07 -0.62728883D-08 -0.71461039D-08  0.95584913D-08  0.72139360D-08
  0.36691887D-07  0.23072843D-07  0.36551260D-08 -0.28230840D-07 -0.17752310D-07
 -0.28122641D-08  0.28923608D-08  0.18187941D-08  0.28812754D-09 -0.15060303D-04
 -0.14565670D-04 -0.45394830D-05 -0.15401961D-06 -0.14896107D-06 -0.46424658D-07
 -0.68228483D-05 -0.65987619D-05 -0.20565458D-05 -0.52178534D-05 -0.50464807D-05
 -0.15727676D-05  0.87143528D-07  0.84281427D-07  0.26266839D-07 -0.38769464D-07
 -0.37496138D-07 -0.11685908D-07 -0.13170413D-03 -0.12737850D-03 -0.39698315D-04
  0.56368243D-05  0.54516911D-05  0.16990540D-05  0.18532998D-08  0.17924309D-08
  0.55862242D-09  0.10897392D-08  0.10539483D-08  0.32846966D-09 -0.16197260D-02
 -0.15665285D-02 -0.48821850D-03  0.98845400D-08  0.95598967D-08  0.29794022D-08
MO    5     MO 0.0        OCC NO =    2.0000000  ORB. ENERGY =  -19.382375
 -0.41525531D-06 -0.40161686D-06 -0.12516643D-06 -0.22933069D-06  0.30674833D-06
  0.23150754D-06  0.58273778D-04  0.36644115D-04  0.58050435D-05 -0.45411498D-04
 -0.28555969D-04 -0.45237452D-05 -0.78348992D-04 -0.49267949D-04 -0.78048708D-05
 -0.46769120D-06  0.18442385D-06  0.36423483D-06 -0.46359039D-06 -0.52841591D-05
 -0.12698330D-05  0.37925775D-06  0.43229073D-05  0.10388351D-05  0.72883267D-06
  0.83074798D-05  0.19963652D-05 -0.33846239D-05 -0.32734609D-05 -0.10201948D-05
 -0.80573633D-06  0.10777374D-05  0.81338452D-06  0.97798796D-05  0.61498507D-05
  0.97423968D-06 -0.21264054D-05 -0.13371408D-05 -0.21182556D-06 -0.17242868D-04
 -0.10842778D-04 -0.17176783D-05  0.16731253D-05 -0.65976055D-06 -0.13030190D-05
 -0.10816740D-06 -0.12329284D-05 -0.29628424D-06  0.27595529D-07  0.31454311D-06
  0.75587657D-07  0.19388378D-06  0.22099525D-05  0.53107229D-06 -0.47293112D-02
 -0.45739839D-02 -0.14255110D-02 -0.59773462D-04  0.79951834D-04  0.60340842D-04
  0.18386426D-03  0.11561878D-03  0.18315958D-04 -0.65777560D-03 -0.41362695D-03
 -0.65525458D-04 -0.54345472D-03 -0.34173891D-03 -0.54137186D-04 -0.44053776D-08
 -0.42606894D-08 -0.13278708D-08  0.36729154D-09 -0.49128211D-09 -0.37077793D-09
  0.18757353D-08  0.11795127D-08  0.18685462D-09 -0.31784712D-10 -0.19987080D-10
 -0.31662893D-11 -0.13236420D-08 -0.83234159D-09 -0.13185689D-09  0.42267578D+01
  0.40879361D+01  0.12740311D+01 -0.64235649D-02  0.85920369D-02  0.64845385D-02
  0.53499657D-03  0.33642020D-03  0.53294612D-04  0.62075547D-02  0.39034770D-02
  0.61837634D-03  0.74358204D-02  0.46758434D-02  0.74073216D-03  0.44750739D-06
  0.43280967D-06  0.13488787D-06 -0.23171601D-08  0.30993888D-08  0.23391549D-08
  0.38056894D-08  0.23931196D-08  0.37911036D-09 -0.13250858D-09 -0.83324953D-10
 -0.13200073D-10 -0.64744372D-08 -0.40712998D-08 -0.64496229D-09 -0.12130925D-04
 -0.11732503D-04 -0.36565087D-05 -0.72696888D-05  0.97237961D-05  0.73386940D-05
 -0.14735360D-04 -0.92659898D-05 -0.14678885D-05 -0.11210979D-04 -0.70497641D-05
 -0.11168011D-05  0.12487833D-04  0.78526847D-05  0.12439972D-05  0.97168452D-08
  0.93977096D-08  0.29288556D-08  0.75606538D-08 -0.10112985D-07 -0.76324208D-08
 -0.97538569D-08 -0.61334870D-08 -0.97164739D-09  0.24589159D-07  0.15462323D-07
  0.24494917D-08 -0.17851841D-07 -0.11225716D-07 -0.17783421D-08 -0.50205088D-04
 -0.48556175D-04 -0.15132839D-04 -0.15579188D-04  0.20838422D-04  0.15727068D-04
 -0.18995638D-03 -0.11944967D-03 -0.18922835D-04 -0.13265985D-03 -0.83420073D-04
 -0.13215141D-04 -0.36470249D-03 -0.22933471D-03 -0.36330471D-04 -0.26879894D-07
 -0.25997063D-07 -0.81021492D-08 -0.26824010D-07  0.35879280D-07  0.27078628D-07
 -0.61402787D-07 -0.38611720D-07 -0.61167452D-08  0.77889351D-08  0.48978914D-08
  0.77590829D-09 -0.77654097D-07 -0.48830980D-07 -0.77356476D-08 -0.59148195D-05
 -0.57205559D-05 -0.17828474D-05  0.34430612D-05 -0.46053726D-05 -0.34757434D-05
 -0.14877953D-04 -0.93556558D-05 -0.14820931D-05 -0.58929011D-05 -0.37056143D-05
 -0.58703157D-06 -0.91460453D-04 -0.57512787D-04 -0.91109917D-05 -0.13619100D-06
 -0.13171801D-06 -0.41050751D-07 -0.85509827D-07  0.11437630D-06  0.86321501D-07
  0.31840728D-06  0.20022304D-06  0.31718694D-07 -0.15598132D-06 -0.98085237D-07
 -0.15538350D-07  0.20795456D-06  0.13076741D-06  0.20715755D-07  0.16304826D-02
  0.15769318D-02  0.49146077D-03  0.11932541D-02 -0.15960738D-02 -0.12045807D-02