 opt glutamate pbe0
GAUSSIAN             59 MOL ORBITALS    177 PRIMITIVES       19 NUCLEI
  O    1    (CENTRE  1)   4.24345833 -3.16431478  0.90983771  CHARGE =  8.0
  O    2    (CENTRE  2)  -6.00780465 -0.26022073 -2.32530783  CHARGE =  8.0
  O    3    (CENTRE  3)   4.59441927 -0.49292317 -2.55961035  CHARGE =  8.0
  O    4    (CENTRE  4)  -5.59268348 -0.70844241  2.00738378  CHARGE =  8.0
  N    5    (CENTRE  5)   2.73158135  3.69516536  0.11204174  CHARGE =  7.0
  C    6    (CENTRE  6)  -0.22676863  0.38906483  1.81431201  CHARGE =  6.0
  C    7    (CENTRE  7)   2.57172571  1.14601934  1.34545971  CHARGE =  6.0
  C    8    (CENTRE  8)  -1.83323692  0.47945673 -0.61087947  CHARGE =  6.0
  C    9    (CENTRE  9)   3.91320127 -0.86335826 -0.34403009  CHARGE =  6.0
  C   10    (CENTRE 10)  -4.61638560 -0.22606811 -0.06742565  CHARGE =  6.0
  H   11    (CENTRE 11)  -1.03084066  1.69770659  3.20513356  CHARGE =  1.0
  H   12    (CENTRE 12)  -0.28087971 -1.51584440  2.63243048  CHARGE =  1.0
  H   13    (CENTRE 13)   3.53515409  1.20846761  3.18893556  CHARGE =  1.0
  H   14    (CENTRE 14)  -1.78058917  2.39104547 -1.41562298  CHARGE =  1.0
  H   15    (CENTRE 15)  -1.09302686 -0.82186583 -2.04764202  CHARGE =  1.0
  H   16    (CENTRE 16)   2.89075268  3.26043485 -1.82356701  CHARGE =  1.0
  H   17    (CENTRE 17)   4.55925114  4.34586534  0.52742254  CHARGE =  1.0
  H   18    (CENTRE 18)   5.09063968 -4.25115290 -0.41916126  CHARGE =  1.0
  H   19    (CENTRE 19)  -7.76186136 -0.72429272 -1.71526677  CHARGE =  1.0
CENTRE ASSIGNMENTS    1  1  1  1  1  1  1  1  1  1  1  1  1  1  1  2  2  2  2  2
CENTRE ASSIGNMENTS    2  2  2  2  2  2  2  2  2  2  3  3  3  3  3  3  3  3  3  3
CENTRE ASSIGNMENTS    3  3  3  3  3  4  4  4  4  4  4  4  4  4  4  4  4  4  4  4
CENTRE ASSIGNMENTS    5  5  5  5  5  5  5  5  5  5  5  5  5  5  5  6  6  6  6  6
CENTRE ASSIGNMENTS    6  6  6  6  6  6  6  6  6  6  7  7  7  7  7  7  7  7  7  7
CENTRE ASSIGNMENTS    7  7  7  7  7  8  8  8  8  8  8  8  8  8  8  8  8  8  8  8
CENTRE ASSIGNMENTS    9  9  9  9  9  9  9  9  9  9  9  9  9  9  9 10 10 10 10 10
CENTRE ASSIGNMENTS   10 10 10 10 10 10 10 10 10 10 11 11 11 12 12 12 13 13 13 14
CENTRE ASSIGNMENTS   14 14 15 15 15 16 16 16 17 17 17 18 18 18 19 19 19
TYPE ASSIGNMENTS      1  1  1  1  1  1  2  2  2  3  3  3  4  4  4  1  1  1  1  1
TYPE ASSIGNMENTS      1  2  2  2  3  3  3  4  4  4  1  1  1  1  1  1  2  2  2  3
TYPE ASSIGNMENTS      3  3  4  4  4  1  1  1  1  1  1  2  2  2  3  3  3  4  4  4
TYPE ASSIGNMENTS      1  1  1  1  1  1  2  2  2  3  3  3  4  4  4  1  1  1  1  1
TYPE ASSIGNMENTS      1  2  2  2  3  3  3  4  4  4  1  1  1  1  1  1  2  2  2  3
TYPE ASSIGNMENTS      3  3  4  4  4  1  1  1  1  1  1  2  2  2  3  3  3  4  4  4
TYPE ASSIGNMENTS      1  1  1  1  1  1  2  2  2  3  3  3  4  4  4  1  1  1  1  1
TYPE ASSIGNMENTS      1  2  2  2  3  3  3  4  4  4  1  1  1  1  1  1  1  1  1  1
TYPE ASSIGNMENTS      1  1  1  1  1  1  1  1  1  1  1  1  1  1  1  1  1
EXPONENTS  0.1307093D+03 0.2380887D+02 0.6443608D+01 0.5033151D+01 0.1169596D+01
EXPONENTS  0.3803890D+00 0.5033151D+01 0.1169596D+01 0.3803890D+00 0.5033151D+01
EXPONENTS  0.1169596D+01 0.3803890D+00 0.5033151D+01 0.1169596D+01 0.3803890D+00
EXPONENTS  0.1307093D+03 0.2380887D+02 0.6443608D+01 0.5033151D+01 0.1169596D+01
EXPONENTS  0.3803890D+00 0.5033151D+01 0.1169596D+01 0.3803890D+00 0.5033151D+01
EXPONENTS  0.1169596D+01 0.3803890D+00 0.5033151D+01 0.1169596D+01 0.3803890D+00
EXPONENTS  0.1307093D+03 0.2380887D+02 0.6443608D+01 0.5033151D+01 0.1169596D+01
EXPONENTS  0.3803890D+00 0.5033151D+01 0.1169596D+01 0.3803890D+00 0.5033151D+01
EXPONENTS  0.1169596D+01 0.3803890D+00 0.5033151D+01 0.1169596D+01 0.3803890D+00
EXPONENTS  0.1307093D+03 0.2380887D+02 0.6443608D+01 0.5033151D+01 0.1169596D+01
EXPONENTS  0.3803890D+00 0.5033151D+01 0.1169596D+01 0.3803890D+00 0.5033151D+01
EXPONENTS  0.1169596D+01 0.3803890D+00 0.5033151D+01 0.1169596D+01 0.3803890D+00
EXPONENTS  0.9910617D+02 0.1805231D+02 0.4885660D+01 0.3780456D+01 0.8784966D+00
EXPONENTS  0.2857144D+00 0.3780456D+01 0.8784966D+00 0.2857144D+00 0.3780456D+01
EXPONENTS  0.8784966D+00 0.2857144D+00 0.3780456D+01 0.8784966D+00 0.2857144D+00
EXPONENTS  0.7161684D+02 0.1304510D+02 0.3530512D+01 0.2941249D+01 0.6834831D+00
EXPONENTS  0.2222899D+00 0.2941249D+01 0.6834831D+00 0.2222899D+00 0.2941249D+01
EXPONENTS  0.6834831D+00 0.2222899D+00 0.2941249D+01 0.6834831D+00 0.2222899D+00
EXPONENTS  0.7161684D+02 0.1304510D+02 0.3530512D+01 0.2941249D+01 0.6834831D+00
EXPONENTS  0.2222899D+00 0.2941249D+01 0.6834831D+00 0.2222899D+00 0.2941249D+01
EXPONENTS  0.6834831D+00 0.2222899D+00 0.2941249D+01 0.6834831D+00 0.2222899D+00
EXPONENTS  0.7161684D+02 0.1304510D+02 0.3530512D+01 0.2941249D+01 0.6834831D+00
EXPONENTS  0.2222899D+00 0.2941249D+01 0.6834831D+00 0.2222899D+00 0.2941249D+01
EXPONENTS  0.6834831D+00 0.2222899D+00 0.2941249D+01 0.6834831D+00 0.2222899D+00
EXPONENTS  0.7161684D+02 0.1304510D+02 0.3530512D+01 0.2941249D+01 0.6834831D+00
EXPONENTS  0.2222899D+00 0.2941249D+01 0.6834831D+00 0.2222899D+00 0.2941249D+01
EXPONENTS  0.6834831D+00 0.2222899D+00 0.2941249D+01 0.6834831D+00 0.2222899D+00
EXPONENTS  0.7161684D+02 0.1304510D+02 0.3530512D+01 0.2941249D+01 0.6834831D+00
EXPONENTS  0.2222899D+00 0.2941249D+01 0.6834831D+00 0.2222899D+00 0.2941249D+01
EXPONENTS  0.6834831D+00 0.2222899D+00 0.2941249D+01 0.6834831D+00 0.2222899D+00
EXPONENTS  0.3425251D+01 0.6239137D+00 0.1688554D+00 0.3425251D+01 0.6239137D+00
EXPONENTS  0.1688554D+00 0.3425251D+01 0.6239137D+00 0.1688554D+00 0.3425251D+01
EXPONENTS  0.6239137D+00 0.1688554D+00 0.3425251D+01 0.6239137D+00 0.1688554D+00
EXPONENTS  0.3425251D+01 0.6239137D+00 0.1688554D+00 0.3425251D+01 0.6239137D+00
EXPONENTS  0.1688554D+00 0.3425251D+01 0.6239137D+00 0.1688554D+00 0.3425251D+01
EXPONENTS  0.6239137D+00 0.1688554D+00
MO    1     MO 0.0        OCC NO =    2.0000005  ORB. ENERGY =    0.000000
  0.11756317D+00  0.11370198D+00  0.35435940D-01  0.23476839D-03 -0.31402169D-03
 -0.23699685D-03  0.25348143D-03  0.15939593D-03  0.25250993D-04 -0.72560163D-03
 -0.45627778D-03 -0.72282066D-04 -0.50153374D-03 -0.31537787D-03 -0.49961154D-04
 -0.20431808D-01 -0.19760755D-01 -0.61585641D-02 -0.33000094D-04  0.44140292D-04
  0.33313337D-04  0.14259235D-03  0.89665898D-04  0.14204585D-04 -0.46104739D-04
 -0.28991897D-04 -0.45928036D-05 -0.16869192D-04 -0.10607800D-04 -0.16804538D-05
  0.18518045D+01  0.17909847D+01  0.55817171D+00  0.11417500D-03 -0.15271829D-03
 -0.11525877D-03 -0.33140768D-02 -0.20839804D-02 -0.33013751D-03 -0.12205395D-02
 -0.76750799D-03 -0.12158616D-03  0.95406335D-02  0.59994064D-02  0.95040677D-03
 -0.25450687D+00 -0.24614797D+00 -0.76713570D-01 -0.13892118D-04  0.18581830D-04
  0.14023984D-04 -0.55453014D-03 -0.34870343D-03 -0.55240483D-04 -0.34078504D-03
 -0.21429478D-03 -0.33947894D-04  0.12479968D-02  0.78477389D-03  0.12432137D-03
  0.29112880D+01  0.28156710D+01  0.87752167D+00 -0.23937805D-02  0.32018748D-02
  0.24165026D-02  0.15510299D-01  0.97532922D-02  0.15450854D-02 -0.12726915D-01
 -0.80030259D-02 -0.12678138D-02 -0.56193344D-02 -0.35335882D-02 -0.55977974D-03
 -0.31049410D-02 -0.30029638D-02 -0.93589264D-03 -0.80855580D-04  0.10815087D-03
  0.81623075D-04  0.60071615D-03  0.37774644D-03  0.59841382D-04  0.13913298D-03
  0.87490549D-04  0.13859973D-04  0.58730981D-04  0.36931617D-04  0.58505886D-05
  0.27306094D-01  0.26409265D-01  0.82306143D-02  0.93498408D-03 -0.12506167D-02
 -0.94385911D-03  0.12561512D-03  0.78990157D-04  0.12513368D-04 -0.16974600D-02
 -0.10674084D-02 -0.16909543D-03  0.13415101D-02  0.84357756D-03  0.13363686D-03
  0.59568398D-01  0.57611961D-01  0.17955132D-01 -0.23447423D-03  0.31362823D-03
  0.23669990D-03 -0.35814851D-03 -0.22521340D-03 -0.35677586D-04 -0.84267425D-04
 -0.52989618D-04 -0.83944458D-05 -0.10775431D-03 -0.67758802D-04 -0.10734133D-04
  0.80387749D+00  0.77747531D+00  0.24230510D+00 -0.13273080D-02  0.17753817D-02
  0.13399070D-02  0.14152891D-03  0.88997175D-04  0.14098648D-04 -0.34604318D-03
 -0.21760124D-03 -0.34471692D-04  0.19049899D-03  0.11979087D-03  0.18976887D-04
 -0.11237985D+00 -0.10868890D+00 -0.33873584D-01  0.19293850D-03 -0.25807083D-03
 -0.19476990D-03  0.88453796D-06  0.55622120D-06  0.88114784D-07  0.21711243D-04
  0.13652612D-04  0.21628031D-05  0.14156689D-03  0.89021057D-04  0.14102431D-04
 -0.10049101D-03 -0.97190535D-04 -0.30290044D-04 -0.10050881D-03 -0.97207749D-04
 -0.30295409D-04  0.82343166D-04  0.79638725D-04  0.24819912D-04 -0.25819936D-03
 -0.24971918D-03 -0.77826562D-04 -0.12267805D-03 -0.11864887D-03 -0.36977669D-04
 -0.16006647D-02 -0.15480932D-02 -0.48247303D-03 -0.14387643D-02 -0.13915102D-02
 -0.43367294D-03 -0.42040217D-03 -0.40659467D-03 -0.12671780D-03  0.55928078D-04
  0.54091202D-04  0.16857865D-04
MO    2     MO 0.0        OCC NO =    2.0000005  ORB. ENERGY =    0.000000
  0.65985740D-02  0.63818535D-02  0.19889450D-02  0.17543091D-04 -0.23465302D-04
 -0.17709613D-04 -0.12583971D-04 -0.79131384D-05 -0.12535741D-05 -0.11175982D-03
 -0.70277573D-04 -0.11133148D-04 -0.16797045D-04 -0.10562432D-04 -0.16732668D-05
  0.16886809D+00  0.16332187D+00  0.50900292D-01  0.28625219D-03 -0.38288543D-03
 -0.28896934D-03 -0.20730977D-02 -0.13036195D-02 -0.20651523D-03 -0.35725288D-03
 -0.22465020D-03 -0.35588366D-04 -0.10279673D-02 -0.64641345D-03 -0.10240275D-03
  0.18191278D+00  0.17593812D+00  0.54832228D-01 -0.89818377D-05  0.12013934D-04
  0.90670949D-05 -0.30956875D-03 -0.19466514D-03 -0.30838229D-04 -0.15887438D-03
 -0.99904471D-04 -0.15826547D-04  0.88359305D-03  0.55562702D-03  0.88020655D-04
  0.37278072D+01  0.36053728D+01  0.11236372D+01 -0.10905379D-03  0.14586825D-03
  0.11008894D-03  0.83728632D-02  0.52650811D-02  0.83407730D-03  0.41681478D-02
  0.26210432D-02  0.41521728D-03 -0.17951164D-01 -0.11288174D-01 -0.17882364D-02
  0.18727197D+00  0.18112129D+00  0.56447596D-01 -0.16978716D-03  0.22710404D-03
  0.17139881D-03  0.93864762D-03  0.59024681D-03  0.93505012D-04 -0.79548138D-03
 -0.50022004D-03 -0.79243258D-04 -0.32340747D-03 -0.20336730D-03 -0.32216797D-04
  0.89390757D-02  0.86454849D-02  0.26944200D-02 -0.63088103D-04  0.84385435D-04
  0.63686946D-04  0.16401445D-03  0.10313669D-03  0.16338584D-04  0.15631827D-04
  0.98297125D-05  0.15571916D-05  0.14749067D-03  0.92746094D-04  0.14692540D-04
 -0.42777649D-02 -0.41372680D-02 -0.12894057D-02  0.11919441D-03 -0.15943215D-03
 -0.12032582D-03  0.18375415D-03  0.11554954D-03  0.18304988D-04 -0.14377895D-04
 -0.90412062D-05 -0.14322790D-05  0.12331170D-03  0.77541709D-04  0.12283909D-04
 -0.29314388D-01 -0.28351600D-01 -0.88359554D-02  0.68370446D-03 -0.91450995D-03
 -0.69019430D-03  0.31667285D-02  0.19913239D-02  0.31545915D-03  0.78229381D-03
  0.49192734D-03  0.77929556D-04 -0.34421881D-03 -0.21645403D-03 -0.34289955D-04
  0.72833855D-01  0.70441733D-01  0.21953611D-01 -0.12567149D-03  0.16809577D-03
  0.12686439D-03 -0.58284865D-05 -0.36651087D-05 -0.58061479D-06 -0.29793406D-04
 -0.18734893D-04 -0.29679219D-05  0.66838889D-04  0.42030087D-04  0.66582720D-05
  0.12698379D+01  0.12281319D+01  0.38275507D+00 -0.20026201D-02  0.26786662D-02
  0.20216293D-02  0.32417137D-03  0.20384766D-03  0.32292894D-04  0.40361365D-03
  0.25380310D-03  0.40206675D-04 -0.25790413D-02 -0.16217704D-02 -0.25691568D-03
 -0.43650486D-04 -0.42216850D-04 -0.13157148D-04 -0.27164354D-04 -0.26272180D-04
 -0.81878910D-05  0.32195518D-04  0.31138103D-04  0.97043866D-05  0.98122521D-04
  0.94899830D-04  0.29576132D-04  0.11261067D-03  0.10891214D-03  0.33943156D-04
 -0.10617923D-03 -0.10269193D-03 -0.32004589D-04 -0.93891515D-04 -0.90807786D-04
 -0.28300820D-04 -0.31625570D-04 -0.30586874D-04 -0.95325928D-05 -0.51191261D-03
 -0.49509959D-03 -0.15430092D-03
MO    3     MO 0.0        OCC NO =    2.0000005  ORB. ENERGY =    0.000000
  0.16165826D+00  0.15634883D+00  0.48727101D-01  0.22541273D-03 -0.30150774D-03
 -0.22755239D-03  0.86481923D-03  0.54382154D-03  0.86150469D-04 -0.20376040D-02
 -0.12813001D-02 -0.20297946D-03 -0.28063942D-04 -0.17647360D-04 -0.27956382D-05
  0.14654170D-04  0.14172875D-04  0.44170660D-05 -0.98128510D-06  0.13125481D-05
  0.99059963D-06  0.37245820D-04  0.23421171D-04  0.37103070D-05  0.40837014D-04
  0.25679410D-04  0.40680500D-05  0.46189002D-04  0.29044884D-04  0.46011976D-05
  0.32311472D+01  0.31250249D+01  0.97393376D+00 -0.26320725D-03  0.35206096D-03
  0.26570566D-03 -0.50455039D-02 -0.31727483D-02 -0.50261663D-03 -0.24458105D-02
 -0.15379913D-02 -0.24364366D-03  0.16286552D-01  0.10241421D-01  0.16224132D-02
 -0.60473220D-01 -0.58487066D-01 -0.18227864D-01  0.21937976D-05 -0.29343815D-05
 -0.22146215D-05 -0.17062180D-03 -0.10729157D-03 -0.16996787D-04 -0.43812547D-04
 -0.27550505D-04 -0.43644629D-05  0.29748659D-03  0.18706755D-03  0.29634643D-04
 -0.18167437D+01 -0.17570755D+01 -0.54760367D+00  0.15873467D-02 -0.21232044D-02
 -0.16024140D-02 -0.88471365D-02 -0.55633168D-02 -0.88132285D-03  0.73729994D-02
  0.46363399D-02  0.73447414D-03  0.25892186D-02  0.16281702D-02  0.25792951D-03
  0.10602112D-01  0.10253901D-01  0.31956930D-02 -0.11900387D-04  0.15917729D-04
  0.12013347D-04 -0.77530376D-04 -0.48753181D-04 -0.77233229D-05 -0.10287174D-03
 -0.64688510D-04 -0.10247747D-04 -0.26787960D-04 -0.16844988D-04 -0.26685291D-05
 -0.20895888D-01 -0.20209593D-01 -0.62984475D-02  0.12290930D-03 -0.16440112D-03
 -0.12407598D-03 -0.16379303D-02 -0.10299745D-02 -0.16316527D-03  0.37611046D-02
  0.23650835D-02  0.37466896D-03  0.94690810D-03  0.59544123D-03  0.94327894D-04
 -0.29348757D-01 -0.28384840D-01 -0.88463148D-02  0.60496238D-04 -0.80918606D-04
 -0.61070479D-04  0.44834160D-04  0.28192923D-04  0.44662327D-05 -0.51145353D-04
 -0.32161570D-04 -0.50949331D-05  0.80299108D-04  0.50494234D-04  0.79991350D-05
  0.10114602D+01  0.97824026D+00  0.30487476D+00 -0.15639395D-02  0.20918954D-02
  0.15787847D-02 -0.61614398D-03 -0.38744787D-03 -0.61378252D-04 -0.10363446D-02
 -0.65168132D-03 -0.10323727D-03  0.23586000D-02  0.14831509D-02  0.23495603D-03
 -0.10360355D-01 -0.10020084D-01 -0.31228226D-02  0.72052649D-05 -0.96376239D-05
 -0.72736585D-05 -0.26196368D-05 -0.16472979D-05 -0.26095966D-06 -0.34098806D-04
 -0.21442244D-04 -0.33968117D-05  0.54600898D-04  0.34334510D-04  0.54391632D-05
 -0.90608138D-04 -0.87632246D-04 -0.27311143D-04  0.52763253D-04  0.51030321D-04
  0.15903922D-04  0.68474496D-04  0.66225551D-04  0.20639612D-04  0.14503524D-03
  0.14027177D-03  0.43716584D-04 -0.60235432D-04 -0.58257087D-04 -0.18156190D-04
  0.67275616D-03  0.65066047D-03  0.20278245D-03  0.89911608D-03  0.86958592D-03
  0.27101195D-03 -0.35621582D-03 -0.34451643D-03 -0.10737072D-03 -0.34471015D-06
 -0.33338865D-06 -0.10390268D-06
MO    4     MO 0.0        OCC NO =    2.0000003  ORB. ENERGY =    0.000000
 -0.31102698D-01 -0.30081175D-01 -0.93749884D-02  0.41144932D-05 -0.55034670D-05
 -0.41535486D-05 -0.48944383D-04 -0.30777541D-04 -0.48756796D-05 -0.49832510D-04
 -0.31336019D-04 -0.49641519D-05  0.15004991D-03  0.94355412D-04  0.14947483D-04
  0.42003133D+01  0.40623602D+01  0.12660602D+01 -0.41998008D-03  0.56175728D-03
  0.42396660D-03 -0.64108852D-02 -0.40313367D-02 -0.63863146D-03 -0.39645520D-02
 -0.24930167D-02 -0.39493573D-03  0.20774163D-01  0.13063351D-01  0.20694543D-02
  0.61879968D-02  0.59847611D-02  0.18651886D-02 -0.12364356D-05  0.16538325D-05
  0.12481720D-05 -0.90703514D-05 -0.57036804D-05 -0.90355880D-06 -0.10567776D-04
 -0.66453013D-05 -0.10527274D-05  0.23940814D-04  0.15054626D-04  0.23849057D-05
 -0.45051935D+00 -0.43572270D+00 -0.13579573D+00 -0.44624935D-04  0.59689456D-04
  0.45048523D-04 -0.97994831D-03 -0.61621779D-03 -0.97619251D-04 -0.52166404D-03
 -0.32803635D-03 -0.51966468D-04  0.23258734D-02  0.14625716D-02  0.23169592D-03
  0.12013005D-01  0.11618455D-01  0.36209650D-02 -0.15000214D-04  0.20063998D-04
  0.15142599D-04  0.39551866D-04  0.24871275D-04  0.39400277D-05 -0.44659059D-04
 -0.28082815D-04 -0.44487897D-05 -0.11726863D-04 -0.73741664D-05 -0.11681919D-05
 -0.13552798D-01 -0.13107677D-01 -0.40850902D-02  0.36409061D-04 -0.48700060D-04
 -0.36754662D-04  0.12571531D-03  0.79053159D-04  0.12523348D-04  0.32138523D-04
  0.20209566D-04  0.32015347D-05 -0.15048081D-04 -0.94626372D-05 -0.14990407D-05
 -0.28057231D-02 -0.27135733D-02 -0.84570226D-03  0.14980257D-04 -0.20037303D-04
 -0.15122452D-04  0.35081307D-04  0.22060067D-04  0.34946852D-05 -0.26211821D-06
 -0.16482696D-06 -0.26111360D-07 -0.34178680D-05 -0.21492471D-05 -0.34047686D-06
 -0.19786002D-01 -0.19136159D-01 -0.59639050D-02  0.11946502D-03 -0.15979411D-03
 -0.12059900D-03  0.50017739D-03  0.31452496D-03  0.49826039D-04  0.13636332D-03
  0.85748912D-04  0.13584068D-04 -0.29675246D-03 -0.18660591D-03 -0.29561512D-04
 -0.91343652D-03 -0.88343604D-03 -0.27532843D-03 -0.28598871D-05  0.38253301D-05
  0.28870337D-05 -0.10071330D-04 -0.63331229D-05 -0.10032731D-05 -0.16899103D-04
 -0.10626610D-04 -0.16834335D-05  0.29798784D-04  0.18738275D-04  0.29684576D-05
  0.30266193D+00  0.29272144D+00  0.91228488D-01 -0.23621948D-03  0.31596264D-03
  0.23846172D-03  0.24324757D-03  0.15296060D-03  0.24231529D-04 -0.51340340D-03
 -0.32284183D-03 -0.51143571D-04  0.45970809D-02  0.28907679D-02  0.45794620D-03
  0.19551750D-04  0.18909602D-04  0.58932969D-05  0.19491896D-04  0.18851713D-04
  0.58752557D-05  0.81990958D-05  0.79298085D-05  0.24713750D-05 -0.15003254D-04
 -0.14510494D-04 -0.45222871D-05 -0.38614310D-04 -0.37346079D-04 -0.11639142D-04
 -0.48528673D-05 -0.46934820D-05 -0.14627533D-05 -0.62245388D-05 -0.60201030D-05
 -0.18762031D-05  0.99892534D-05  0.96611710D-05  0.30109650D-05 -0.14011513D-02
 -0.13551326D-02 -0.42233563D-03
MO    5     MO 0.0        OCC NO =    2.0000003  ORB. ENERGY =    0.000000
  0.41893978D+01  0.40518032D+01  0.12627701D+01 -0.57549352D-03  0.76976907D-03
  0.58095620D-03  0.52951686D-02  0.33297441D-02  0.52748741D-03  0.58677225D-02
  0.36897814D-02  0.58452336D-03 -0.20381719D-01 -0.12816572D-01 -0.20303603D-02
  0.32552296D-01  0.31483164D-01  0.98119271D-02 -0.39845171D-05  0.53296135D-05
  0.40223388D-05 -0.50823234D-04 -0.31959014D-04 -0.50628447D-05 -0.37452930D-04
 -0.23551408D-04 -0.37309387D-05  0.15968699D-03  0.10041547D-03  0.15907497D-04
 -0.50222637D+00 -0.48573148D+00 -0.15138129D+00 -0.21952804D-04  0.29363648D-04
  0.22161183D-04  0.84569222D-03  0.53179396D-03  0.84245098D-04  0.41818428D-03
  0.26296550D-03  0.41658153D-04 -0.26907536D-02 -0.16920181D-02 -0.26804409D-03
  0.20712726D-02  0.20032447D-02  0.62432387D-03 -0.23827777D-05  0.31871576D-05
  0.24053954D-05 -0.28390387D-05 -0.17852637D-05 -0.28281577D-06 -0.32304914D-05
 -0.20314197D-05 -0.32181101D-06 -0.76150140D-05 -0.47885252D-05 -0.75858284D-06
 -0.46252540D-01 -0.44733443D-01 -0.13941460D-01  0.64755524D-04 -0.86615745D-04
 -0.65370195D-04 -0.16365359D-03 -0.10290977D-03 -0.16302636D-04  0.14363712D-03
  0.90322875D-04  0.14308661D-04  0.47988912D-04  0.30176716D-04  0.47804987D-05
  0.51283054D-01  0.49598737D-01  0.15457760D-01 -0.16693878D-03  0.22329411D-03
  0.16852339D-03  0.10524659D-04  0.66181880D-05  0.10484322D-05 -0.50933657D-04
 -0.32028451D-04 -0.50738447D-05 -0.78712682D-05 -0.49496647D-05 -0.78411004D-06
 -0.94734195D-02 -0.91622789D-02 -0.28554821D-02  0.12287631D-03 -0.16435699D-03
 -0.12404267D-03 -0.16696783D-03 -0.10499385D-03 -0.16632790D-04  0.28604426D-03
  0.17987231D-03  0.28494796D-04  0.51800936D-03  0.32573818D-03  0.51602401D-04
  0.77958981D-03  0.75398533D-03  0.23498429D-03  0.17190053D-04 -0.22993085D-04
 -0.17353224D-04 -0.49339554D-04 -0.31026036D-04 -0.49150453D-05 -0.40511172D-05
 -0.25474512D-05 -0.40355908D-06 -0.51653006D-04 -0.32480796D-04 -0.51455038D-05
  0.32091192D+00  0.31037204D+00  0.96729407D-01 -0.28414040D-03  0.38006074D-03
  0.28683751D-03  0.49886000D-03  0.31369656D-03  0.49694805D-04  0.26491325D-02
  0.16658456D-02  0.26389793D-03 -0.39206380D-02 -0.24654024D-02 -0.39056116D-03
  0.12230784D-02  0.11829082D-02  0.36866081D-03  0.91434516D-06 -0.12230105D-05
 -0.92302428D-06  0.78077050D-05  0.49096944D-05  0.77777809D-06 -0.29932793D-05
 -0.18822543D-05 -0.29818071D-06  0.28983986D-04  0.18225908D-04  0.28872901D-05
 -0.59981301D-04 -0.58011303D-04 -0.18079589D-04 -0.16756098D-03 -0.16205769D-03
 -0.50506302D-04 -0.56890331D-04 -0.55021851D-04 -0.17147908D-04  0.46363887D-05
  0.44841133D-05  0.13975023D-05 -0.12569914D-04 -0.12157073D-04 -0.37888287D-05
  0.50164273D-04  0.48516701D-04  0.15120537D-04  0.22896698D-04  0.22144690D-04
  0.69015326D-05 -0.14038784D-02 -0.13577700D-02 -0.42315761D-03 -0.10797360D-04
 -0.10442736D-04 -0.32545447D-05
MO    6     MO 0.0        OCC NO =    2.0000002  ORB. ENERGY =    0.000000
 -0.33279093D-01 -0.32186090D-01 -0.10030998D-01  0.74645474D-04 -0.99844351D-04
 -0.75354021D-04 -0.57551327D-04 -0.36189819D-04 -0.57330754D-05 -0.28379113D-03
 -0.17845548D-03 -0.28270346D-04  0.21213558D-03  0.13339655D-03  0.21132254D-04
 -0.62401122D+00 -0.60351649D+00 -0.18808973D+00  0.12411149D-02 -0.16600915D-02
 -0.12528958D-02 -0.14358851D-02 -0.90292309D-03 -0.14303819D-03  0.36898872D-03
  0.23203001D-03  0.36757452D-04 -0.56644295D-02 -0.35619453D-02 -0.56427197D-03
 -0.11557880D+00 -0.11178278D+00 -0.34837810D-01  0.40805046D-04 -0.54580045D-04
 -0.41192374D-04  0.15629259D-03  0.98280974D-04  0.15569358D-04  0.43693671D-04
  0.27475753D-04  0.43526208D-05 -0.52594344D-03 -0.33072735D-03 -0.52392769D-04
 -0.19392397D+01 -0.18755482D+01 -0.58452646D+00  0.78984175D-03 -0.10564771D-02
 -0.79733906D-03 -0.36800034D-02 -0.23140849D-02 -0.36658993D-03 -0.18142263D-02
 -0.11408342D-02 -0.18072730D-03  0.77171070D-02  0.48527240D-02  0.76875301D-03
  0.32180439D-01  0.31123520D-01  0.96998416D-02 -0.66345614D-04  0.88742618D-04
  0.66975378D-04  0.85469746D-04  0.53745670D-04  0.85142171D-05 -0.17847603D-03
 -0.11223052D-03 -0.17779200D-04 -0.15522211D-04 -0.97607829D-05 -0.15462720D-05
 -0.12253382D+00 -0.11850937D+00 -0.36934196D-01  0.72278988D-04 -0.96678986D-04
 -0.72965073D-04 -0.25487559D-03 -0.16027261D-03 -0.25389874D-04  0.80178663D-04
  0.50418495D-04  0.79871366D-05 -0.67737892D-03 -0.42595404D-03 -0.67478277D-04
 -0.52973091D-01 -0.51233267D-01 -0.15967172D-01  0.20438218D-03 -0.27337768D-03
 -0.20632221D-03 -0.73104247D-04 -0.45969913D-04 -0.72824065D-05  0.15988522D-03
  0.10054012D-03  0.15927244D-04  0.23293936D-03  0.14647852D-03  0.23204658D-04
 -0.53342154D+00 -0.51590209D+00 -0.16078415D+00  0.23716589D-02 -0.31722854D-02
 -0.23941711D-02  0.44079566D-02  0.27718414D-02  0.43910625D-03  0.11712606D-02
  0.73652009D-03  0.11667716D-03 -0.12175226D-02 -0.76561089D-03 -0.12128563D-03
  0.14619133D+00  0.14138989D+00  0.44065053D-01 -0.37054504D-03  0.49563393D-03
  0.37406232D-03  0.84878291D-04  0.53373747D-04  0.84552983D-05  0.99136284D-05
  0.62339556D-05  0.98756330D-06 -0.23518189D-03 -0.14788868D-03 -0.23428052D-04
  0.22832910D+01  0.22082996D+01  0.68823054D+00 -0.57031299D-02  0.76283970D-02
  0.57572650D-02 -0.26467044D-02 -0.16643187D-02 -0.26365605D-03 -0.99121429D-03
 -0.62330214D-03 -0.98741532D-04  0.31237342D-02  0.19642879D-02  0.31117620D-03
  0.85936615D-04  0.83114152D-04  0.25903051D-04  0.90559687D-04  0.87585386D-04
  0.27296539D-04  0.70699871D-04  0.68377838D-04  0.21310385D-04  0.42325200D-03
  0.40935091D-03  0.12757680D-03  0.42044792D-03  0.40663893D-03  0.12673159D-03
 -0.12016064D-04 -0.11621414D-04 -0.36218872D-05 -0.21233543D-04 -0.20536158D-04
 -0.64002235D-05 -0.13284239D-04 -0.12847937D-04 -0.40041409D-05 -0.16777558D-03
 -0.16226523D-03 -0.50570986D-04
MO    7     MO 0.0        OCC NO =    2.0000002  ORB. ENERGY =    0.000000
 -0.67489859D+00 -0.65273254D+00 -0.20342822D+00  0.12918720D-02 -0.17279832D-02
 -0.13041347D-02 -0.82672936D-04 -0.51986961D-04 -0.82356080D-05 -0.42267863D-02
 -0.26579166D-02 -0.42105865D-03  0.42818594D-02  0.26925481D-02  0.42654485D-03
  0.38566960D-01  0.37300284D-01  0.11624869D-01 -0.81129700D-04  0.10851753D-03
  0.81899798D-04  0.11045469D-03  0.69456873D-04  0.11003136D-04 -0.10864622D-04
 -0.68319656D-05 -0.10822981D-05  0.36453675D-03  0.22923049D-03  0.36313961D-04
 -0.19499110D+01 -0.18858690D+01 -0.58774300D+00  0.81432286D-03 -0.10892226D-02
 -0.82205255D-03  0.26347983D-02  0.16568319D-02  0.26247001D-03  0.12067808D-02
  0.75885618D-03  0.12021557D-03 -0.83520417D-02 -0.52519880D-02 -0.83200313D-03
  0.12210656D+00  0.11809615D+00  0.36805410D-01 -0.50743365D-04  0.67873351D-04
  0.51225030D-04  0.25012767D-03  0.15728699D-03  0.24916902D-04  0.12691137D-03
  0.79805276D-04  0.12642496D-04 -0.46334808D-03 -0.29136571D-03 -0.46157223D-04
 -0.20737363D+00 -0.20056275D+00 -0.62506648D-01  0.11431317D-03 -0.15290310D-03
 -0.11539825D-03 -0.52381395D-03 -0.32938827D-03 -0.52180635D-04 -0.45194166D-03
 -0.28419304D-03 -0.45020953D-04  0.33747659D-03  0.21221434D-03  0.33618316D-04
 -0.29637589D-01 -0.28664186D-01 -0.89333748D-02 -0.70976337D-04  0.94936585D-04
  0.71650057D-04  0.63379286D-03  0.39854596D-03  0.63136376D-04  0.21499542D-03
  0.13519489D-03  0.21417142D-04  0.34114688D-04  0.21452231D-04  0.33983938D-05
 -0.44313569D+00 -0.42858155D+00 -0.13357015D+00  0.20674186D-02 -0.27653394D-02
 -0.20870429D-02 -0.21959817D-02 -0.13808922D-02 -0.21875653D-03  0.29674343D-02
  0.18660023D-02  0.29560612D-03  0.28408496D-02  0.17864025D-02  0.28299617D-03
  0.38935476D-01  0.37656697D-01  0.11735948D-01 -0.21550217D-03  0.28825156D-03
  0.21754775D-03 -0.27031772D-03 -0.16998304D-03 -0.26928169D-04 -0.14372466D-03
 -0.90377925D-04 -0.14317382D-04  0.73991986D-04  0.46528146D-04  0.73708401D-05
  0.22908550D+01  0.22156152D+01  0.69051048D+00 -0.57078076D-02  0.76346537D-02
  0.57619871D-02  0.15616415D-02  0.98200211D-03  0.15556563D-03 -0.44573092D-03
 -0.28028756D-03 -0.44402259D-04 -0.40727882D-02 -0.25610785D-02 -0.40571786D-03
 -0.14540112D+00 -0.14062563D+00 -0.43826867D-01  0.36833148D-03 -0.49267312D-03
 -0.37182775D-03  0.14521036D-03  0.91312174D-04  0.14465383D-04  0.38212846D-04
  0.24029263D-04  0.38066390D-05 -0.17800269D-03 -0.11193287D-03 -0.17732047D-04
 -0.95092420D-04 -0.91969248D-04 -0.28662798D-04  0.26533902D-04  0.25662434D-04
  0.79978599D-05  0.36707030D-03  0.35501441D-03  0.11064248D-03 -0.21277325D-04
 -0.20578503D-04 -0.64134205D-05 -0.18520363D-03 -0.17912089D-03 -0.55824156D-04
  0.15122697D-03  0.14626014D-03  0.45582897D-04  0.97879268D-04  0.94664567D-04
  0.29502811D-04 -0.15020000D-03 -0.14526690D-03 -0.45273347D-04  0.90400401D-05
  0.87431332D-05  0.27248527D-05
MO    8     MO 0.0        OCC NO =    2.0000001  ORB. ENERGY =    0.000000
 -0.95906228D-01 -0.92756328D-01 -0.28908096D-01  0.13411555D-03 -0.17939038D-03
 -0.13538860D-03  0.85778634D-04  0.53939907D-04  0.85449875D-05 -0.24584086D-04
 -0.15459133D-04 -0.24489864D-05  0.42402444D-03  0.26663794D-03  0.42239930D-04
 -0.64474467D-01 -0.62356898D-01 -0.19433921D-01  0.17366615D-03 -0.23229250D-03
 -0.17531462D-03 -0.20617639D-03 -0.12964924D-03 -0.20538619D-04  0.18949360D-04
  0.11915866D-04  0.18876734D-05 -0.50732339D-03 -0.31901856D-03 -0.50537900D-04
 -0.12719369D+00 -0.12301620D+00 -0.38338775D-01  0.90974189D-04 -0.12168533D-03
 -0.91837731D-04 -0.12708123D-03 -0.79912090D-04 -0.12659418D-04  0.55933487D-03
  0.35172478D-03  0.55719114D-04 -0.25647686D-03 -0.16127953D-03 -0.25549388D-04
 -0.29685316D+00 -0.28710346D+00 -0.89477607D-01  0.17322072D-03 -0.23169671D-03
 -0.17486497D-03  0.22274927D-03  0.14007072D-03  0.22189555D-04 -0.81162119D-04
 -0.51036918D-04 -0.80851053D-05  0.10862715D-02  0.68307667D-03  0.10821082D-03
 -0.64391899D-01 -0.62277042D-01 -0.19409034D-01  0.38027255D-03 -0.50864526D-03
 -0.38388217D-03  0.10239196D-05  0.64386812D-06  0.10199953D-06  0.13088209D-02
  0.82302167D-03  0.13038046D-03 -0.42169191D-03 -0.26517119D-03 -0.42007572D-04
  0.18850985D+01  0.18231852D+01  0.56820718D+00 -0.41992641D-02  0.56168550D-02
  0.42391242D-02  0.92521746D-04  0.58180157D-04  0.92167143D-05 -0.28991445D-03
 -0.18230599D-03 -0.28880331D-04  0.16855207D-02  0.10599006D-02  0.16790607D-03
  0.87596485D+00  0.84719506D+00  0.26403370D+00 -0.16208745D-02  0.21680506D-02
  0.16362601D-02  0.22125062D-02  0.13912833D-02  0.22040265D-03  0.72008298D-03
  0.45280750D-03  0.71732316D-04 -0.25696023D-03 -0.16158349D-03 -0.25597540D-04
  0.16292551D+01  0.15757446D+01  0.49109078D+00 -0.35986196D-02  0.48134444D-02
  0.36327783D-02 -0.96413560D-03 -0.60627433D-03 -0.96044041D-04  0.17059064D-03
  0.10727197D-03  0.16993682D-04 -0.19898145D-02 -0.12512488D-02 -0.19821883D-03
  0.14034862D+00  0.13573907D+00  0.42303940D-01 -0.68584992D-04  0.91737968D-04
  0.69236013D-04  0.65410591D-03  0.41131935D-03  0.65159896D-04 -0.85122099D-03
 -0.53527060D-03 -0.84795857D-04 -0.91265757D-03 -0.57390357D-03 -0.90915968D-04
  0.38553330D+00  0.37287102D+00  0.11620761D+00 -0.45528787D-03  0.60898431D-03
  0.45960954D-03 -0.24627696D-02 -0.15486556D-02 -0.24533306D-03 -0.68262821D-03
 -0.42925494D-03 -0.68001194D-04  0.93824539D-03  0.58999388D-03  0.93464943D-04
 -0.15619935D-02 -0.15106922D-02 -0.47081676D-03 -0.15675352D-02 -0.15160518D-02
 -0.47248714D-03 -0.71573129D-03 -0.69222414D-03 -0.21573603D-03 -0.13610325D-02
 -0.13163314D-02 -0.41024300D-03 -0.13745519D-02 -0.13294067D-02 -0.41431801D-03
 -0.46744522D-04 -0.45209267D-04 -0.14089754D-04 -0.27559929D-04 -0.26654764D-04
 -0.83071256D-05 -0.16016491D-05 -0.15490453D-05 -0.48276974D-06 -0.75482821D-04
 -0.73003698D-04 -0.22752064D-04
MO    9     MO 0.0        OCC NO =    2.0000001  ORB. ENERGY =    0.000000
  0.90949491D-01  0.87962388D-01  0.27414034D-01 -0.16541511D-03  0.22125607D-03
  0.16698525D-03 -0.29807760D-04 -0.18743919D-04 -0.29693518D-05  0.16329961D-03
  0.10268718D-03  0.16267374D-04 -0.41961158D-03 -0.26386302D-03 -0.41800336D-04
 -0.50470398D-01 -0.48812771D-01 -0.15212809D-01  0.87881027D-04 -0.11754797D-03
 -0.88715208D-04  0.42057470D-04  0.26446866D-04  0.41896279D-05  0.45774984D-04
  0.28784538D-04  0.45599545D-05 -0.22218988D-03 -0.13971896D-03 -0.22133831D-04