 opt glutamine b3lyp
GAUSSIAN             39 MOL ORBITALS    180 PRIMITIVES       20 NUCLEI
  O    1    (CENTRE  1)  -4.32698021 -3.20407799 -0.82955711  CHARGE =  8.0
  O    2    (CENTRE  2)  -4.86627926 -0.25592169  2.46931888  CHARGE =  8.0
  O    3    (CENTRE  3)   5.67277885 -0.47856517 -2.13119503  CHARGE =  8.0
  N    4    (CENTRE  4)  -2.58975461  3.67267718 -0.01453652  CHARGE =  7.0
  N    5    (CENTRE  5)   6.19303490 -0.56929326  2.33290878  CHARGE =  7.0
  C    6    (CENTRE  6)   0.23963824  0.22044217 -1.85548037  CHARGE =  6.0
  C    7    (CENTRE  7)  -2.54990942  1.13584926 -1.39273886  CHARGE =  6.0
  C    8    (CENTRE  8)   1.85534578  0.29901585  0.59614445  CHARGE =  6.0
  C    9    (CENTRE  9)  -4.04213917 -0.80307112  0.31132128  CHARGE =  6.0
  C   10    (CENTRE 10)   4.72743986 -0.21965672  0.02287660  CHARGE =  6.0
  H   11    (CENTRE 11)   0.20225740 -1.71129783 -2.64322932  CHARGE =  1.0
  H   12    (CENTRE 12)   1.11446151  1.47017087 -3.27721646  CHARGE =  1.0
  H   13    (CENTRE 13)  -3.50425494  1.27868616 -3.25231666  CHARGE =  1.0
  H   14    (CENTRE 14)   1.65279929  2.19133698  1.45918538  CHARGE =  1.0
  H   15    (CENTRE 15)   1.18074112 -1.10885089  1.98142080  CHARGE =  1.0
  H   16    (CENTRE 16)  -3.34925830  3.12121191  1.77939563  CHARGE =  1.0
  H   17    (CENTRE 17)  -4.14798965  4.64992387 -0.81877970  CHARGE =  1.0
  H   18    (CENTRE 18)   5.57323132  0.57923376  3.82567018  CHARGE =  1.0
  H   19    (CENTRE 19)   8.13104179 -0.27909013  2.02405354  CHARGE =  1.0
  H   20    (CENTRE 20)  -5.29439835 -4.20197000  0.53193834  CHARGE =  1.0
CENTRE ASSIGNMENTS    1  1  1  1  1  1  1  1  1  1  1  1  1  1  1  2  2  2  2  2
CENTRE ASSIGNMENTS    2  2  2  2  2  2  2  2  2  2  3  3  3  3  3  3  3  3  3  3
CENTRE ASSIGNMENTS    3  3  3  3  3  4  4  4  4  4  4  4  4  4  4  4  4  4  4  4
CENTRE ASSIGNMENTS    5  5  5  5  5  5  5  5  5  5  5  5  5  5  5  6  6  6  6  6
CENTRE ASSIGNMENTS    6  6  6  6  6  6  6  6  6  6  7  7  7  7  7  7  7  7  7  7
CENTRE ASSIGNMENTS    7  7  7  7  7  8  8  8  8  8  8  8  8  8  8  8  8  8  8  8
CENTRE ASSIGNMENTS    9  9  9  9  9  9  9  9  9  9  9  9  9  9  9 10 10 10 10 10
CENTRE ASSIGNMENTS   10 10 10 10 10 10 10 10 10 10 11 11 11 12 12 12 13 13 13 14
CENTRE ASSIGNMENTS   14 14 15 15 15 16 16 16 17 17 17 18 18 18 19 19 19 20 20 20
TYPE ASSIGNMENTS      1  1  1  1  1  1  2  2  2  3  3  3  4  4  4  1  1  1  1  1
TYPE ASSIGNMENTS      1  2  2  2  3  3  3  4  4  4  1  1  1  1  1  1  2  2  2  3
TYPE ASSIGNMENTS      3  3  4  4  4  1  1  1  1  1  1  2  2  2  3  3  3  4  4  4
TYPE ASSIGNMENTS      1  1  1  1  1  1  2  2  2  3  3  3  4  4  4  1  1  1  1  1
TYPE ASSIGNMENTS      1  2  2  2  3  3  3  4  4  4  1  1  1  1  1  1  2  2  2  3
TYPE ASSIGNMENTS      3  3  4  4  4  1  1  1  1  1  1  2  2  2  3  3  3  4  4  4
TYPE ASSIGNMENTS      1  1  1  1  1  1  2  2  2  3  3  3  4  4  4  1  1  1  1  1
TYPE ASSIGNMENTS      1  2  2  2  3  3  3  4  4  4  1  1  1  1  1  1  1  1  1  1
TYPE ASSIGNMENTS      1  1  1  1  1  1  1  1  1  1  1  1  1  1  1  1  1  1  1  1
EXPONENTS  0.1307093D+03 0.2380887D+02 0.6443608D+01 0.5033151D+01 0.1169596D+01
EXPONENTS  0.3803890D+00 0.5033151D+01 0.1169596D+01 0.3803890D+00 0.5033151D+01
EXPONENTS  0.1169596D+01 0.3803890D+00 0.5033151D+01 0.1169596D+01 0.3803890D+00
EXPONENTS  0.1307093D+03 0.2380887D+02 0.6443608D+01 0.5033151D+01 0.1169596D+01
EXPONENTS  0.3803890D+00 0.5033151D+01 0.1169596D+01 0.3803890D+00 0.5033151D+01
EXPONENTS  0.1169596D+01 0.3803890D+00 0.5033151D+01 0.1169596D+01 0.3803890D+00
EXPONENTS  0.1307093D+03 0.2380887D+02 0.6443608D+01 0.5033151D+01 0.1169596D+01
EXPONENTS  0.3803890D+00 0.5033151D+01 0.1169596D+01 0.3803890D+00 0.5033151D+01
EXPONENTS  0.1169596D+01 0.3803890D+00 0.5033151D+01 0.1169596D+01 0.3803890D+00
EXPONENTS  0.9910617D+02 0.1805231D+02 0.4885660D+01 0.3780456D+01 0.8784966D+00
EXPONENTS  0.2857144D+00 0.3780456D+01 0.8784966D+00 0.2857144D+00 0.3780456D+01
EXPONENTS  0.8784966D+00 0.2857144D+00 0.3780456D+01 0.8784966D+00 0.2857144D+00
EXPONENTS  0.9910617D+02 0.1805231D+02 0.4885660D+01 0.3780456D+01 0.8784966D+00
EXPONENTS  0.2857144D+00 0.3780456D+01 0.8784966D+00 0.2857144D+00 0.3780456D+01
EXPONENTS  0.8784966D+00 0.2857144D+00 0.3780456D+01 0.8784966D+00 0.2857144D+00
EXPONENTS  0.7161684D+02 0.1304510D+02 0.3530512D+01 0.2941249D+01 0.6834831D+00
EXPONENTS  0.2222899D+00 0.2941249D+01 0.6834831D+00 0.2222899D+00 0.2941249D+01
EXPONENTS  0.6834831D+00 0.2222899D+00 0.2941249D+01 0.6834831D+00 0.2222899D+00
EXPONENTS  0.7161684D+02 0.1304510D+02 0.3530512D+01 0.2941249D+01 0.6834831D+00
EXPONENTS  0.2222899D+00 0.2941249D+01 0.6834831D+00 0.2222899D+00 0.2941249D+01
EXPONENTS  0.6834831D+00 0.2222899D+00 0.2941249D+01 0.6834831D+00 0.2222899D+00
EXPONENTS  0.7161684D+02 0.1304510D+02 0.3530512D+01 0.2941249D+01 0.6834831D+00
EXPONENTS  0.2222899D+00 0.2941249D+01 0.6834831D+00 0.2222899D+00 0.2941249D+01
EXPONENTS  0.6834831D+00 0.2222899D+00 0.2941249D+01 0.6834831D+00 0.2222899D+00
EXPONENTS  0.7161684D+02 0.1304510D+02 0.3530512D+01 0.2941249D+01 0.6834831D+00
EXPONENTS  0.2222899D+00 0.2941249D+01 0.6834831D+00 0.2222899D+00 0.2941249D+01
EXPONENTS  0.6834831D+00 0.2222899D+00 0.2941249D+01 0.6834831D+00 0.2222899D+00
EXPONENTS  0.7161684D+02 0.1304510D+02 0.3530512D+01 0.2941249D+01 0.6834831D+00
EXPONENTS  0.2222899D+00 0.2941249D+01 0.6834831D+00 0.2222899D+00 0.2941249D+01
EXPONENTS  0.6834831D+00 0.2222899D+00 0.2941249D+01 0.6834831D+00 0.2222899D+00
EXPONENTS  0.3425251D+01 0.6239137D+00 0.1688554D+00 0.3425251D+01 0.6239137D+00
EXPONENTS  0.1688554D+00 0.3425251D+01 0.6239137D+00 0.1688554D+00 0.3425251D+01
EXPONENTS  0.6239137D+00 0.1688554D+00 0.3425251D+01 0.6239137D+00 0.1688554D+00
EXPONENTS  0.3425251D+01 0.6239137D+00 0.1688554D+00 0.3425251D+01 0.6239137D+00
EXPONENTS  0.1688554D+00 0.3425251D+01 0.6239137D+00 0.1688554D+00 0.3425251D+01
EXPONENTS  0.6239137D+00 0.1688554D+00 0.3425251D+01 0.6239137D+00 0.1688554D+00
MO    1     MO 0.0        OCC NO =    2.0000000  ORB. ENERGY =  -18.952427
  0.42244181D+01  0.40856733D+01  0.12733259D+01 -0.68696990D-02  0.91887774D-02
  0.69349074D-02 -0.20482480D-02 -0.12879933D-02 -0.20403978D-03  0.25792445D-02
  0.16218982D-02  0.25693592D-03  0.63185231D-02  0.39732569D-02  0.62943064D-03
  0.35530420D-02  0.34363475D-02  0.10709594D-02 -0.43381091D-04  0.58025714D-04
  0.43792872D-04 -0.36496652D-03 -0.22950074D-03 -0.36356773D-04 -0.10526689D-02
 -0.66194645D-03 -0.10486344D-03  0.14888279D-04  0.93621494D-05  0.14831218D-05
  0.30276640D-05  0.29282248D-05  0.91259977D-06 -0.51484808D-07  0.68865090D-07
  0.51973511D-07 -0.29600261D-06 -0.18613438D-06 -0.29486814D-07 -0.93143434D-06
 -0.58571091D-06 -0.92786448D-07 -0.44071721D-06 -0.27713481D-06 -0.43902810D-07
  0.60185378D-05  0.58208677D-05  0.18141102D-05 -0.33086340D-05  0.44255652D-05
  0.33400401D-05  0.34949371D-04  0.21977102D-04  0.34815422D-05  0.57302328D-04
  0.36033241D-04  0.57082708D-05 -0.93793225D-05 -0.58979697D-05 -0.93433749D-06
  0.93143333D-07  0.90084176D-07  0.28075303D-07  0.32125383D-07 -0.42970294D-07
 -0.32430322D-07  0.65606267D-06  0.41254981D-06  0.65354822D-07  0.34549850D-06
  0.21725873D-06  0.34417433D-07  0.11018579D-06  0.69287781D-07  0.10976349D-07
 -0.38801528D-04 -0.37527149D-04 -0.11695573D-04 -0.15296141D-04  0.20459825D-04
  0.15441335D-04  0.12259910D-04  0.77093602D-05  0.12212922D-05 -0.71600917D-04
 -0.45024578D-04 -0.71326496D-05  0.10325864D-04  0.64931801D-05  0.10286288D-05
 -0.67057077D-04 -0.64854685D-04 -0.20212373D-04 -0.47153988D-04  0.63072269D-04
  0.47601582D-04 -0.83594567D-04 -0.52566507D-04 -0.83274179D-05 -0.26925538D-03
 -0.16931501D-03 -0.26822342D-04 -0.92951147D-04 -0.58450175D-04 -0.92594898D-05
  0.35276193D-05  0.34117598D-05  0.10632965D-05  0.39719481D-05 -0.53128015D-05
 -0.40096505D-05 -0.33251557D-05 -0.20909471D-05 -0.33124116D-06  0.13222904D-05
  0.83149168D-06  0.13172225D-06  0.11225431D-05  0.70588520D-06  0.11182408D-06
  0.15975059D-02  0.15450381D-02  0.48152091D-03  0.77821928D-03 -0.10409312D-02
 -0.78560627D-03  0.39524045D-03  0.24853780D-03  0.39372563D-04  0.39611051D-02
  0.24908492D-02  0.39459236D-03  0.20405707D-02  0.12831656D-02  0.20327499D-03
 -0.84792123D-06 -0.82007250D-06 -0.25558078D-06 -0.59235827D-06  0.79232705D-06
  0.59798104D-06 -0.22099872D-05 -0.13896992D-05 -0.22015171D-06  0.67766865D-06
  0.42613623D-06  0.67507139D-07  0.14269671D-06  0.89731523D-07  0.14214981D-07
 -0.54791769D-04 -0.52992214D-04 -0.16515358D-04  0.24739471D-05  0.23926939D-05
  0.74569818D-06 -0.23795690D-04 -0.23014155D-04 -0.71725069D-05  0.91645234D-06
  0.88635281D-06  0.27623745D-06  0.99864462D-05  0.96584560D-05  0.30101189D-05
 -0.37665502D-04 -0.36428434D-04 -0.11353152D-04  0.48261162D-06  0.46676095D-06
  0.14546900D-06 -0.17423184D-06 -0.16850945D-06 -0.52517035D-07 -0.28711246D-07
 -0.27768267D-07 -0.86541559D-08 -0.17531723D-02 -0.16955920D-02 -0.52844195D-03
MO    2     MO 0.0        OCC NO =    2.0000000  ORB. ENERGY =  -18.886193
 -0.38710312D-02 -0.37438929D-02 -0.11668079D-02 -0.54323047D-04  0.72661464D-04
  0.54838691D-04 -0.42585591D-03 -0.26778962D-03 -0.42422375D-04 -0.10179833D-03
 -0.64013519D-04 -0.10140817D-04  0.83761748D-03  0.52671635D-03  0.83440719D-04
  0.42246641D+01  0.40859112D+01  0.12734001D+01 -0.68888629D-02  0.92144106D-02
  0.69542531D-02  0.33897385D-02  0.21315586D-02  0.33767469D-03 -0.20965731D-02
 -0.13183815D-02 -0.20885377D-03 -0.87586444D-02 -0.55076707D-02 -0.87250757D-03
 -0.26917770D-05 -0.26033695D-05 -0.81135657D-06  0.51536145D-07 -0.68933757D-07
 -0.52025335D-07  0.62986543D-06  0.39607629D-06  0.62745138D-07 -0.78489451D-06
 -0.49356273D-06 -0.78188629D-07 -0.56321726D-07 -0.35416613D-07 -0.56105865D-08
 -0.13280879D-03 -0.12844688D-03 -0.40031281D-04 -0.76843473D-04  0.10278435D-03
  0.77572885D-04 -0.19029889D-03 -0.11966505D-03 -0.18956954D-04 -0.59988128D-04
 -0.37722145D-04 -0.59758215D-05  0.48461924D-03  0.30474158D-03  0.48276187D-04
 -0.83474823D-08 -0.80733214D-08 -0.25161017D-08 -0.21508195D-07  0.28768949D-07
  0.21712355D-07  0.65720243D-06  0.41326652D-06  0.65468360D-07  0.23268089D-06
  0.14631599D-06  0.23178910D-07 -0.59696062D-07 -0.37538486D-07 -0.59467269D-08
 -0.87164165D-05 -0.84301386D-05 -0.26273060D-05 -0.42988890D-05  0.57501113D-05
  0.43396948D-05 -0.15750637D-04 -0.99044234D-05 -0.15690271D-05  0.67186293D-05
  0.42248544D-05  0.66928792D-06 -0.12079109D-04 -0.75956677D-05 -0.12032814D-05
 -0.67910355D-04 -0.65679939D-04 -0.20469568D-04 -0.33151662D-04  0.44343026D-04
  0.33466343D-04 -0.10867911D-03 -0.68340343D-04 -0.10826259D-04  0.21396177D-03
  0.13454490D-03  0.21314173D-04  0.39131791D-03  0.24607120D-03  0.38981813D-04
 -0.74029416D-05 -0.71598028D-05 -0.22313978D-05 -0.78777109D-07  0.10537075D-06
  0.79524875D-07 -0.31659835D-04 -0.19908554D-04 -0.31538494D-05 -0.35446832D-05
 -0.22289919D-05 -0.35310977D-06 -0.17034075D-05 -0.10711483D-05 -0.16968789D-06
  0.18359846D-02  0.17756844D-02  0.55340326D-03  0.12479922D-02 -0.16692903D-02
 -0.12598383D-02  0.21827175D-02  0.13725513D-02  0.21743519D-03 -0.14187343D-02
 -0.89213823D-03 -0.14132968D-03 -0.56942759D-02 -0.35807135D-02 -0.56724518D-03
 -0.20380712D-05 -0.19711337D-05 -0.61431628D-06 -0.13304106D-05  0.17795317D-05
  0.13430391D-05 -0.56387352D-05 -0.35457880D-05 -0.56171239D-06  0.24605182D-05
  0.15472399D-05  0.24510880D-06  0.34341628D-06  0.21594937D-06  0.34210009D-07
 -0.99194283D-05 -0.95936392D-05 -0.29899183D-05  0.85855771D-06  0.83035964D-06
  0.25878683D-06  0.91229094D-05  0.88232808D-05  0.27498312D-05  0.42804807D-05
  0.41398945D-05  0.12902243D-05  0.96629437D-05  0.93455785D-05  0.29126086D-05
 -0.30225609D-03 -0.29232893D-03 -0.91106160D-04  0.56700912D-05  0.54838654D-05
  0.17090813D-05 -0.23906308D-06 -0.23121141D-06 -0.72058497D-07 -0.23629177D-07
 -0.22853111D-07 -0.71223165D-08 -0.32192811D-04 -0.31135485D-04 -0.97035708D-05
MO    3     MO 0.0        OCC NO =    2.0000000  ORB. ENERGY =  -18.852847
 -0.35059927D-05 -0.33908435D-05 -0.10567778D-05 -0.30052999D-07  0.40198314D-07
  0.30338267D-07  0.75302883D-06  0.47352473D-06  0.75014273D-07 -0.11260413D-06
 -0.70808500D-07 -0.11217256D-07 -0.69036530D-06 -0.43412023D-06 -0.68771938D-07
  0.27940061D-05  0.27022410D-05  0.84217050D-06 -0.58247688D-08  0.77910988D-08
  0.58800585D-08 -0.38191464D-06 -0.24015817D-06 -0.38045090D-07 -0.14458790D-06
 -0.90920753D-07 -0.14403375D-07 -0.17227402D-06 -0.10833052D-06 -0.17161375D-07
  0.42246804D+01  0.40859270D+01  0.12734050D+01 -0.68968624D-02  0.92251107D-02
  0.69623286D-02 -0.38684604D-02 -0.24325917D-02 -0.38536340D-03  0.10597408D-02
  0.66639347D-03  0.10556792D-03  0.89002488D-02  0.55967153D-02  0.88661373D-03
  0.24181627D-06  0.23387417D-06  0.72888364D-07  0.10159171D-06 -0.13588711D-06
 -0.10255603D-06 -0.33358018D-06 -0.20976417D-06 -0.33230169D-07  0.35417600D-06
  0.22271537D-06  0.35281857D-07 -0.15082860D-05 -0.94845071D-06 -0.15025053D-06
 -0.98261347D-04 -0.95034097D-04 -0.29617977D-04 -0.63861056D-04  0.85419322D-04
  0.64467236D-04  0.44557165D-03  0.28018741D-03  0.44386393D-04 -0.89015405D-04
 -0.55975275D-04 -0.88674241D-05 -0.53869499D-03 -0.33874587D-03 -0.53663037D-04
 -0.93005317D-05 -0.89950694D-05 -0.28033702D-05  0.50096864D-06 -0.67008603D-06
 -0.50572392D-06 -0.26209019D-04 -0.16480934D-04 -0.26108569D-05  0.15139915D-04
  0.95203847D-05  0.15081889D-05 -0.99966218D-04 -0.62861441D-04 -0.99583083D-05
  0.29885963D-05  0.28904402D-05  0.90082396D-06  0.11435764D-05 -0.15296258D-05
 -0.11544314D-05 -0.42136616D-05 -0.26496635D-05 -0.41975121D-06  0.24721740D-05
  0.15545693D-05  0.24626990D-06  0.30139338D-05  0.18952424D-05  0.30023824D-06
 -0.60930405D-04 -0.58929235D-04 -0.18365669D-04 -0.24362486D-04  0.32586793D-04
  0.24593738D-04  0.27203867D-05  0.17106522D-05  0.27099605D-06 -0.30169817D-04
 -0.18971590D-04 -0.30054187D-05 -0.46634106D-03 -0.29324777D-03 -0.46455374D-04
 -0.77249939D-06 -0.74712778D-06 -0.23284709D-06 -0.28251288D-06  0.37788380D-06
  0.28519454D-06  0.17989876D-05  0.11312517D-05  0.17920927D-06 -0.76321082D-07
 -0.47992745D-07 -0.76028571D-08 -0.69553163D-06 -0.43736896D-06 -0.69286591D-07
  0.18615635D-02  0.18004232D-02  0.56111326D-03  0.12726932D-02 -0.17023300D-02
 -0.12847738D-02 -0.25818214D-02 -0.16235186D-02 -0.25719262D-03  0.71543225D-03
  0.44988300D-03  0.71269025D-04  0.57495672D-02  0.36154822D-02  0.57275312D-03
 -0.11564430D-04 -0.11184613D-04 -0.34857553D-05 -0.43941574D-04 -0.42498378D-04
 -0.13244888D-04  0.80960937D-06  0.78301894D-06  0.24403280D-06  0.11544146D-04
  0.11164996D-04  0.34796415D-05  0.10283532D-04  0.99457845D-05  0.30996666D-05
  0.23405521D-06  0.22636801D-06  0.70549021D-07 -0.80828626D-07 -0.78173928D-07
 -0.24363399D-07  0.12422900D-05  0.12014888D-05  0.37445159D-06 -0.45665952D-04
 -0.44166121D-04 -0.13764651D-04  0.39052289D-07  0.37769674D-07  0.11771157D-07
MO    4     MO 0.0        OCC NO =    2.0000000  ORB. ENERGY =  -14.136079
  0.21562143D-06  0.20853966D-06  0.64992703D-07  0.77065679D-07 -0.10308157D-06
 -0.77797200D-07 -0.27924824D-06 -0.17559879D-06 -0.27817798D-07 -0.27613073D-06
 -0.17363841D-06 -0.27507241D-07 -0.19222606D-06 -0.12087691D-06 -0.19148933D-07
  0.36124311D-07  0.34937861D-07  0.10888605D-07  0.47174733D-07 -0.63100016D-07
 -0.47622524D-07 -0.18081812D-06 -0.11370329D-06 -0.18012511D-07  0.22588383D-06
  0.14204181D-06  0.22501810D-07  0.43793689D-06  0.27538647D-06  0.43625843D-07
 -0.21850777D-03 -0.21133120D-03 -0.65862704D-04 -0.72604557D-04  0.97114460D-04
  0.73293732D-04  0.67799369D-03  0.42634062D-03  0.67539518D-04 -0.11137760D-03
 -0.70037224D-04 -0.11095073D-04  0.61039606D-03  0.38383342D-03  0.60805663D-04
 -0.49963550D-04 -0.48322571D-04 -0.15060035D-04  0.51348237D-06 -0.68682416D-06
 -0.51835644D-06 -0.43357413D-05 -0.27264305D-05 -0.43191239D-06  0.10971792D-05
  0.68993573D-06  0.10929741D-06 -0.15322879D-05 -0.96354373D-06 -0.15264152D-06
  0.34286796D+01  0.33160697D+01  0.10334741D+01 -0.69623528D-02  0.93127093D-02
  0.70284406D-02  0.62786915D-03  0.39482097D-03  0.62546275D-04  0.46133332D-02
  0.29009877D-02  0.45956519D-03 -0.13873075D-02 -0.87237621D-03 -0.13819905D-03
  0.19769241D-04  0.19119949D-04  0.59588531D-05  0.51818187D-05 -0.69311011D-05
 -0.52310054D-05 -0.78368436D-04 -0.49280175D-04 -0.78068077D-05  0.11469264D-04
  0.72121810D-05  0.11425306D-05  0.94672259D-05  0.59532457D-05  0.94309413D-06
  0.34304379D-05  0.33177702D-05  0.10340040D-05  0.27172164D-05 -0.36344965D-05
 -0.27430087D-05 -0.92648664D-05 -0.58259966D-05 -0.92293575D-06  0.57854036D-05
  0.36380170D-05  0.57632302D-06  0.37920520D-05  0.23845441D-05  0.37775184D-06
 -0.39728030D-04 -0.38423221D-04 -0.11974840D-04 -0.50600938D-04  0.67682843D-04
  0.51081251D-04  0.20920326D-03  0.13155263D-03  0.20840146D-04 -0.57000621D-04
 -0.35843520D-04 -0.56782158D-05  0.16374532D-03  0.10296745D-03  0.16311774D-04
 -0.76868820D-06 -0.74344176D-06 -0.23169832D-06 -0.37025658D-06  0.49524808D-06
  0.37377112D-06  0.18380883D-05  0.11558393D-05  0.18310436D-06 -0.10797253D-06
 -0.67896024D-07 -0.10755871D-07  0.38230722D-06  0.24040504D-06  0.38084198D-07
  0.15774389D-02  0.15256303D-02  0.47547232D-03  0.10011767D-02 -0.13391547D-02
 -0.10106800D-02 -0.26060571D-02 -0.16387587D-02 -0.25960691D-03  0.51453615D-03
  0.32355414D-03  0.51256412D-04 -0.40241031D-02 -0.25304640D-02 -0.40086801D-03
  0.28828757D-06  0.27881919D-06  0.86895762D-07 -0.64144332D-05 -0.62037606D-05
 -0.19334412D-05  0.56262871D-06  0.54414999D-06  0.16958778D-06  0.37243342D-04
  0.36020139D-04  0.11225904D-04 -0.24102574D-04 -0.23310960D-04 -0.72650080D-05
 -0.52711228D-06 -0.50980005D-06 -0.15888241D-06 -0.26641185D-06 -0.25766194D-06
 -0.80301973D-07 -0.21762836D-02 -0.21048068D-02 -0.65597633D-03 -0.21694136D-02
 -0.20981624D-02 -0.65390558D-03  0.25239537D-07  0.24410582D-07  0.76077121D-08
MO    5     MO 0.0        OCC NO =    2.0000000  ORB. ENERGY =  -14.100873
  0.25874740D-04  0.25024922D-04  0.77991752D-05  0.39430968D-05 -0.52742105D-05
 -0.39805253D-05 -0.51601517D-04 -0.32448419D-04 -0.51403747D-05 -0.41637484D-04
 -0.26182767D-04 -0.41477902D-05  0.74905831D-04  0.47102796D-04  0.74618743D-05
 -0.29935197D-03 -0.28952019D-03 -0.90230798D-04 -0.74249982D-04  0.99315349D-04
  0.74954775D-04  0.16304921D-03  0.10252972D-03  0.16242430D-04  0.59800419D-03
  0.37604108D-03  0.59571225D-04  0.12892816D-03  0.81073487D-04  0.12843402D-04
  0.48655966D-06  0.47057932D-06  0.14665902D-06  0.57572726D-06 -0.77008172D-06
 -0.58119216D-06 -0.23453411D-05 -0.14748134D-05 -0.23363522D-06 -0.27127441D-05
 -0.17058463D-05 -0.27023471D-06 -0.57032305D-05 -0.35863444D-05 -0.56813721D-06
  0.34289971D+01  0.33163767D+01  0.10335698D+01 -0.67810813D-02  0.90702440D-02
  0.68454484D-02 -0.59462599D-02 -0.37391678D-02 -0.59234700D-03 -0.30730929D-02
 -0.19324433D-02 -0.30613148D-03  0.11017402D-03  0.69280378D-04  0.10975176D-04
  0.53238774D-04  0.51490224D-04  0.16047254D-04  0.46420547D-06 -0.62091232D-06
 -0.46861179D-06  0.11483914D-05  0.72213931D-06  0.11439900D-06 -0.15292304D-05
 -0.96162110D-06 -0.15233694D-06 -0.51971503D-05 -0.32681076D-05 -0.51772315D-06
 -0.18618359D-04 -0.18006867D-04 -0.56119538D-05 -0.44440853D-04  0.59443231D-04
  0.44862693D-04 -0.60517814D-04 -0.38055225D-04 -0.60285871D-05  0.11028032D-03
  0.69347225D-04  0.10985765D-04  0.70487488D-04  0.44324424D-04  0.70217335D-05
  0.15967552D-02  0.15443121D-02  0.48129463D-03  0.92398644D-03 -0.12359065D-02
 -0.93275708D-03  0.16898635D-03  0.10626315D-03  0.16833869D-04 -0.38603159D-02
 -0.24274702D-02 -0.38455207D-03 -0.20798106D-02 -0.13078407D-02 -0.20718394D-03
 -0.38489374D-04 -0.37225246D-04 -0.11601483D-04 -0.27431499D-04  0.36691846D-04
  0.27691883D-04  0.23923796D-04  0.15043925D-04  0.23832105D-05  0.71721242D-04
  0.45100242D-04  0.71446360D-05  0.96693151D-04  0.60803248D-04  0.96322561D-05
 -0.81284083D-04 -0.78614426D-04 -0.24500683D-04 -0.82399763D-04  0.11021634D-03
  0.83181915D-04  0.89237525D-04  0.56114951D-04  0.88895510D-05  0.34469531D-03
  0.21675366D-03  0.34337421D-04  0.55231757D-04  0.34731211D-04  0.55020073D-05
  0.55444025D-06  0.53623048D-06  0.16711962D-06  0.11468518D-05 -0.15340069D-05
 -0.11577379D-05  0.89375204D-05  0.56201527D-05  0.89032660D-06  0.57363414D-05
  0.36071654D-05  0.57143560D-06 -0.10408329D-04 -0.65450366D-05 -0.10368438D-05
 -0.28782075D-04 -0.27836770D-04 -0.86755053D-05 -0.16496245D-04 -0.15954450D-04
 -0.49723051D-05  0.14131790D-03  0.13667652D-03  0.42596100D-04 -0.12712687D-03
 -0.12295157D-03 -0.38318635D-04  0.40771621D-05  0.39432536D-05  0.12289399D-05
 -0.21499328D-02 -0.20793215D-02 -0.64803367D-03 -0.21631079D-02 -0.20920638D-02
 -0.65200490D-03  0.33224345D-05  0.32133140D-05  0.10014496D-05 -0.24510382D-06
 -0.23705375D-06 -0.73879299D-07 -0.71207692D-06 -0.68868980D-06 -0.21463453D-06
MO    6     MO 0.0        OCC NO =    2.0000000  ORB. ENERGY =  -10.109888
  0.26009468D-02  0.25155225D-02  0.78397848D-03  0.12934127D-02 -0.17300440D-02
 -0.13056900D-02 -0.97557479D-03 -0.61346760D-03 -0.97183575D-04 -0.59601839D-02
 -0.37479235D-02 -0.59373406D-03 -0.22547475D-02 -0.14178457D-02 -0.22461058D-03
  0.23463346D-02  0.22692727D-02  0.70723318D-03  0.18003002D-02 -0.24080470D-02
 -0.18173890D-02 -0.18361857D-02 -0.11546428D-02 -0.18291483D-03  0.14677137D-02
  0.92293777D-03  0.14620885D-03  0.49695491D-02  0.31249858D-02  0.49505026D-03
 -0.17614135D-05 -0.17035625D-05 -0.53092602D-06 -0.36504805D-06  0.48828125D-06
  0.36851314D-06 -0.65202423D-05 -0.41001033D-05 -0.64952525D-06  0.46206951D-05
  0.29056171D-05  0.46029856D-06 -0.49236516D-05 -0.30961243D-05 -0.49047810D-06
 -0.16598166D-03 -0.16053024D-03 -0.50030264D-04 -0.13139266D-03  0.17574829D-03
  0.13263986D-03 -0.72164720D-04 -0.45379113D-04 -0.71888138D-05 -0.16100308D-03
 -0.10124306D-03 -0.16038601D-04  0.19430220D-03  0.12218244D-03  0.19355751D-04
 -0.18237001D-05 -0.17638033D-05 -0.54970045D-06 -0.41770791D-06  0.55871807D-06
  0.42167286D-06 -0.75337169D-05 -0.47374033D-05 -0.75048428D-06 -0.30582749D-05
 -0.19231253D-05 -0.30465536D-06 -0.62044205D-06 -0.39015061D-06 -0.61806412D-07
 -0.99588736D-03 -0.96317889D-03 -0.30018079D-03 -0.27021543D-04  0.36143496D-04
  0.27278036D-04  0.48355770D-04  0.30407406D-04  0.48170439D-05  0.13538681D-03
  0.85134859D-04  0.13486792D-04 -0.17468594D-03 -0.10984721D-03 -0.17401643D-04
 -0.23824991D-01 -0.23042494D-01 -0.71813388D-02  0.10982903D-02 -0.14690521D-02
 -0.11087155D-02  0.22835043D-02  0.14359288D-02  0.22747524D-03  0.28207187D-02
  0.17737436D-02  0.28099079D-03 -0.27048892D-02 -0.17009069D-02 -0.26945223D-03
  0.14602269D-03  0.14122679D-03  0.44014220D-04 -0.35164714D-04  0.47035646D-04
  0.35498504D-04  0.77808097D-04  0.48927820D-04  0.77509887D-05 -0.70376170D-04
 -0.44254424D-04 -0.70106443D-05  0.69530969D-04  0.43722939D-04  0.69264481D-05
  0.26839304D+01  0.25957806D+01  0.80899143D+00 -0.60531371D-02  0.80965598D-02
  0.61105945D-02 -0.18271912D-03 -0.11489869D-03 -0.18201882D-04  0.27188260D-03
  0.17096708D-03  0.27084057D-04  0.71868286D-03  0.45192707D-03  0.71592840D-04
 -0.17489112D-03 -0.16914708D-03 -0.52715756D-04  0.64738349D-05 -0.86592772D-05
 -0.65352856D-05  0.27046717D-04  0.17007701D-04  0.26943056D-05 -0.17217252D-04
 -0.10826670D-04 -0.17151265D-05 -0.79586262D-05 -0.50045977D-05 -0.79281236D-06
 -0.55031237D-04 -0.53223817D-04 -0.16587539D-04 -0.52129372D-04 -0.50417259D-04
 -0.15712858D-04 -0.13516279D-04 -0.13072356D-04 -0.40740824D-05 -0.54399804D-06
 -0.52613123D-06 -0.16397212D-06 -0.14731529D-03 -0.14247694D-03 -0.44403837D-04
 -0.32528627D-03 -0.31460271D-03 -0.98047924D-04 -0.15280742D-04 -0.14778868D-04
 -0.46059277D-05  0.19703282D-05  0.19056157D-05  0.59389717D-06  0.32000224D-06
  0.30949223D-06  0.96455211D-07 -0.47415131D-03 -0.45857851D-03 -0.14291889D-03
MO    7     MO 0.0        OCC NO =    2.0000000  ORB. ENERGY =  -10.081063
 -0.11701498D-05 -0.11317179D-05 -0.35270704D-06 -0.14073499D-06  0.18824442D-06
  0.14207087D-06  0.49552249D-05  0.31159784D-05  0.49362332D-06 -0.55004963D-06
 -0.34588596D-06 -0.54794148D-07 -0.66299377D-06 -0.41690827D-06 -0.66045275D-07
 -0.26806866D-05 -0.25926434D-05 -0.80801369D-06 -0.12009398D-05  0.16063540D-05
  0.12123393D-05  0.30153985D-05  0.18961635D-05  0.30038416D-06 -0.10707232D-05
 -0.67329950D-06 -0.10666195D-06 -0.55859540D-05 -0.35125978D-05 -0.55645450D-06
  0.23530842D-02  0.22758006D-02  0.70926764D-03  0.18110236D-02 -0.24223903D-02
 -0.18282141D-02  0.20275814D-02  0.12749976D-02  0.20198104D-03 -0.49498069D-03
 -0.31125714D-03 -0.49308360D-04 -0.49390028D-02 -0.31057775D-02 -0.49200734D-03
 -0.17182032D-05 -0.16617713D-05 -0.51790154D-06 -0.24140567D-05  0.32289958D-05
  0.24369713D-05 -0.98180014D-05 -0.61738228D-05 -0.97803725D-06 -0.17886809D-05
 -0.11247705D-05 -0.17818255D-06 -0.10559893D-04 -0.66403442D-05 -0.10519421D-05
  0.25884925D-02  0.25034773D-02  0.78022452D-03  0.12375865D-02 -0.16553719D-02
 -0.12493339D-02  0.29640406D-02  0.18638682D-02  0.29526804D-03 -0.45955492D-03
 -0.28898047D-03 -0.45779361D-04  0.49979825D-02  0.31428655D-02  0.49788270D-03
 -0.90436462D-03 -0.87466209D-03 -0.27259397D-03 -0.51753757D-04  0.69224831D-04
  0.52245012D-04 -0.12471534D-03 -0.78424350D-04 -0.12423735D-04  0.73142479D-04
  0.45993954D-04  0.72862150D-05  0.68285393D-04  0.42939688D-04  0.68023679D-05
 -0.13902199D-02 -0.13445602D-02 -0.41904069D-03  0.25204339D-04 -0.33712840D-04
 -0.25443583D-04 -0.89880430D-04 -0.56519226D-04 -0.89535950D-05  0.28720274D-04
  0.18060079D-04  0.28610200D-05 -0.38284675D-04 -0.24074431D-04 -0.38137943D-05
 -0.18971377D-01 -0.18348290D-01 -0.57183605D-02  0.10879903D-02 -0.14552749D-02
 -0.10983177D-02 -0.43783008D-02 -0.27531931D-02 -0.43615204D-03  0.84019644D-03
  0.52833807D-03  0.83697626D-04  0.10690821D-02  0.67226754D-03  0.10649847D-03
  0.17588669D-03  0.17010995D-03  0.53015842D-04 -0.62664764D-06  0.83819184D-06
  0.63259589D-06 -0.50749258D-05 -0.31912495D-05 -0.50554754D-06  0.32301687D-05
  0.20312168D-05  0.32177886D-06 -0.13599199D-04 -0.85515415D-05 -0.13547078D-05
  0.26838216D+01  0.25956754D+01  0.80895864D+00 -0.61739847D-02  0.82582033D-02
  0.62325893D-02  0.40534911D-03  0.25489440D-03  0.40379555D-04 -0.36945829D-03
 -0.23232529D-03 -0.36804229D-04 -0.11019861D-03 -0.69295844D-04 -0.10977626D-04
 -0.42629155D-04 -0.41229062D-04 -0.12849298D-04 -0.79825811D-04 -0.77204049D-04
 -0.24061130D-04  0.67880142D-06  0.65650719D-06  0.20460461D-06 -0.21747949D-04
 -0.21033669D-04 -0.65552760D-05 -0.90733176D-05 -0.87753178D-05 -0.27348833D-05
 -0.26632692D-05 -0.25757981D-05 -0.80276375D-06 -0.14007715D-05 -0.13547652D-05
 -0.42222114D-06 -0.13235854D-03 -0.12801141D-03 -0.39895567D-04 -0.17563277D-03
 -0.16986437D-03 -0.52939304D-04  0.22594134D-06  0.21852063D-06  0.68103334D-07
MO    8     MO 0.0        OCC NO =    2.0000000  ORB. ENERGY =  -10.055664
 -0.69508716D-04 -0.67225804D-04 -0.20951347D-04 -0.60807186D-04  0.81334524D-04
  0.61384379D-04  0.43402494D-04  0.27292653D-04  0.43236147D-05  0.21604231D-03
  0.13585320D-03  0.21521430D-04  0.56427931D-06  0.35483397D-06  0.56211662D-07
 -0.10613677D-03 -0.10265087D-03 -0.31991791D-04 -0.43877424D-04  0.58689599D-04
  0.44293916D-04  0.27019168D-03  0.16990378D-03  0.26915613D-04  0.49423197D-03
  0.31078632D-03  0.49233775D-04 -0.23122516D-03 -0.14540058D-03 -0.23033895D-04
  0.73874318D-05  0.71448024D-05  0.22267228D-05 -0.10098003D-05  0.13506894D-05
  0.10193855D-05  0.18542424D-04  0.11659974D-04  0.18471358D-05 -0.87623893D-06
 -0.55100255D-06 -0.87288062D-07  0.34238187D-04  0.21529890D-04  0.34106964D-05
  0.26999974D-02  0.26113200D-02  0.81383438D-03  0.11474057D-02 -0.15347478D-02
 -0.11582970D-02 -0.29522755D-03 -0.18564701D-03 -0.29409605D-04  0.49883963D-02
  0.31368375D-02  0.49692776D-03  0.28525882D-02  0.17937840D-02  0.28416553D-03
  0.63675610D-05  0.61584278D-05  0.19193129D-05  0.30609115D-05 -0.40942164D-05
 -0.30899662D-05  0.18506027D-05  0.11637086D-05  0.18435100D-06 -0.48963491D-05
 -0.30789557D-05 -0.48775832D-06  0.11289874D-04  0.70993759D-05  0.11246604D-05
 -0.34520745D-01 -0.33386962D-01 -0.10405258D-01  0.12050708D-02 -0.16118796D-02
 -0.12165096D-02  0.44643606D-02  0.28073097D-02  0.44472503D-03 -0.15046692D-02
 -0.94617636D-03 -0.14989023D-03 -0.76846099D-03 -0.48322889D-03 -0.76551575D-04
  0.26817591D+01  0.25936806D+01  0.80833696D+00 -0.68856650D-02  0.92101333D-02
  0.69510250D-02 -0.30438086D-03 -0.19140285D-03 -0.30321427D-04 -0.36665302D-03
 -0.23056126D-03 -0.36524777D-04 -0.38843612D-03 -0.24425906D-03 -0.38694739D-04
 -0.13859070D-02 -0.13403889D-02 -0.41774067D-03 -0.37933971D-04  0.50739751D-04
  0.38294047D-04  0.44816986D-04  0.28182124D-04  0.44645219D-05 -0.24172730D-05
 -0.15200461D-05 -0.24080084D-06 -0.12280067D-03 -0.77220354D-04 -0.12233001D-04
  0.27920520D-01  0.27003511D-01  0.84158150D-02  0.10749655D-02 -0.14378532D-02
 -0.10851693D-02 -0.24281551D-02 -0.15268891D-02 -0.24188488D-03 -0.31790946D-02
 -0.19991000D-02 -0.31669102D-03  0.27641239D-02  0.17381553D-02  0.27535300D-03
  0.14579310D-02  0.14100473D-02  0.43945017D-03  0.15659780D-04 -0.20946221D-04
 -0.15808425D-04  0.83147350D-04  0.52285285D-04  0.82828676D-05  0.24583220D-05
  0.15458589D-05  0.24489002D-06  0.52110711D-04  0.32768613D-04  0.51910989D-05
  0.58437969D-04  0.56518659D-04  0.17614397D-04  0.60293715D-04  0.58313457D-04
  0.18173757D-04 -0.25412801D-02 -0.24578155D-02 -0.76599373D-03 -0.36215151D-04
 -0.35025717D-04 -0.10915986D-04 -0.44863386D-05 -0.43389914D-05 -0.13522741D-05
 -0.13451992D-03 -0.13010181D-03 -0.40547051D-04 -0.11980932D-03 -0.11587436D-03
 -0.36112976D-04  0.15407688D-05  0.14901645D-05  0.46441918D-06 -0.10323756D-06
 -0.99846869D-07 -0.31117908D-07 -0.43628110D-04 -0.42195209D-04 -0.13150403D-04
MO    9     MO 0.0        OCC NO =    2.0000000  ORB. ENERGY =  -10.017657