 opt glutamate b3lyp
GAUSSIAN             39 MOL ORBITALS    177 PRIMITIVES       19 NUCLEI
  O    1    (CENTRE  1)   4.30021472 -2.76170270  1.84819031  CHARGE =  8.0
  O    2    (CENTRE  2)  -5.95429926 -1.70484362 -1.90715667  CHARGE =  8.0
  O    3    (CENTRE  3)   4.96173838 -0.98852750 -2.18752186  CHARGE =  8.0
  O    4    (CENTRE  4)  -5.88577375  0.80624025  1.74648908  CHARGE =  8.0
  N    5    (CENTRE  5)   2.55519151  3.47032186 -1.16463770  CHARGE =  7.0
  C    6    (CENTRE  6)  -0.26645584  0.76831550  1.66840042  CHARGE =  6.0
  C    7    (CENTRE  7)   2.52073639  1.52384934  0.96551700  CHARGE =  6.0
  C    8    (CENTRE  8)  -1.84338251  0.04315142 -0.70455221  CHARGE =  6.0
  C    9    (CENTRE  9)   4.06263582 -0.84015099  0.00414991  CHARGE =  6.0
  C   10    (CENTRE 10)  -4.72065285 -0.17600901 -0.06203464  CHARGE =  6.0
  H   11    (CENTRE 11)  -1.17805376  2.39750290  2.59873974  CHARGE =  1.0
  H   12    (CENTRE 12)  -0.22184362 -0.80901324  3.03395095  CHARGE =  1.0
  H   13    (CENTRE 13)   3.44253050  2.27604446  2.69034346  CHARGE =  1.0
  H   14    (CENTRE 14)  -1.58550452  1.54005229 -2.14154570  CHARGE =  1.0
  H   15    (CENTRE 15)  -1.19748564 -1.75894929 -1.53297461  CHARGE =  1.0
  H   16    (CENTRE 16)   3.40303888  2.39471920 -2.65518114  CHARGE =  1.0
  H   17    (CENTRE 17)   4.04537858  4.72231805 -0.67604563  CHARGE =  1.0
  H   18    (CENTRE 18)   5.31419287 -4.12581293  0.90166316  CHARGE =  1.0
  H   19    (CENTRE 19)  -7.80092067 -1.65338354 -1.29537603  CHARGE =  1.0
CENTRE ASSIGNMENTS    1  1  1  1  1  1  1  1  1  1  1  1  1  1  1  2  2  2  2  2
CENTRE ASSIGNMENTS    2  2  2  2  2  2  2  2  2  2  3  3  3  3  3  3  3  3  3  3
CENTRE ASSIGNMENTS    3  3  3  3  3  4  4  4  4  4  4  4  4  4  4  4  4  4  4  4
CENTRE ASSIGNMENTS    5  5  5  5  5  5  5  5  5  5  5  5  5  5  5  6  6  6  6  6
CENTRE ASSIGNMENTS    6  6  6  6  6  6  6  6  6  6  7  7  7  7  7  7  7  7  7  7
CENTRE ASSIGNMENTS    7  7  7  7  7  8  8  8  8  8  8  8  8  8  8  8  8  8  8  8
CENTRE ASSIGNMENTS    9  9  9  9  9  9  9  9  9  9  9  9  9  9  9 10 10 10 10 10
CENTRE ASSIGNMENTS   10 10 10 10 10 10 10 10 10 10 11 11 11 12 12 12 13 13 13 14
CENTRE ASSIGNMENTS   14 14 15 15 15 16 16 16 17 17 17 18 18 18 19 19 19
TYPE ASSIGNMENTS      1  1  1  1  1  1  2  2  2  3  3  3  4  4  4  1  1  1  1  1
TYPE ASSIGNMENTS      1  2  2  2  3  3  3  4  4  4  1  1  1  1  1  1  2  2  2  3
TYPE ASSIGNMENTS      3  3  4  4  4  1  1  1  1  1  1  2  2  2  3  3  3  4  4  4
TYPE ASSIGNMENTS      1  1  1  1  1  1  2  2  2  3  3  3  4  4  4  1  1  1  1  1
TYPE ASSIGNMENTS      1  2  2  2  3  3  3  4  4  4  1  1  1  1  1  1  2  2  2  3
TYPE ASSIGNMENTS      3  3  4  4  4  1  1  1  1  1  1  2  2  2  3  3  3  4  4  4
TYPE ASSIGNMENTS      1  1  1  1  1  1  2  2  2  3  3  3  4  4  4  1  1  1  1  1
TYPE ASSIGNMENTS      1  2  2  2  3  3  3  4  4  4  1  1  1  1  1  1  1  1  1  1
TYPE ASSIGNMENTS      1  1  1  1  1  1  1  1  1  1  1  1  1  1  1  1  1
EXPONENTS  0.1307093D+03 0.2380887D+02 0.6443608D+01 0.5033151D+01 0.1169596D+01
EXPONENTS  0.3803890D+00 0.5033151D+01 0.1169596D+01 0.3803890D+00 0.5033151D+01
EXPONENTS  0.1169596D+01 0.3803890D+00 0.5033151D+01 0.1169596D+01 0.3803890D+00
EXPONENTS  0.1307093D+03 0.2380887D+02 0.6443608D+01 0.5033151D+01 0.1169596D+01
EXPONENTS  0.3803890D+00 0.5033151D+01 0.1169596D+01 0.3803890D+00 0.5033151D+01
EXPONENTS  0.1169596D+01 0.3803890D+00 0.5033151D+01 0.1169596D+01 0.3803890D+00
EXPONENTS  0.1307093D+03 0.2380887D+02 0.6443608D+01 0.5033151D+01 0.1169596D+01
EXPONENTS  0.3803890D+00 0.5033151D+01 0.1169596D+01 0.3803890D+00 0.5033151D+01
EXPONENTS  0.1169596D+01 0.3803890D+00 0.5033151D+01 0.1169596D+01 0.3803890D+00
EXPONENTS  0.1307093D+03 0.2380887D+02 0.6443608D+01 0.5033151D+01 0.1169596D+01
EXPONENTS  0.3803890D+00 0.5033151D+01 0.1169596D+01 0.3803890D+00 0.5033151D+01
EXPONENTS  0.1169596D+01 0.3803890D+00 0.5033151D+01 0.1169596D+01 0.3803890D+00
EXPONENTS  0.9910617D+02 0.1805231D+02 0.4885660D+01 0.3780456D+01 0.8784966D+00
EXPONENTS  0.2857144D+00 0.3780456D+01 0.8784966D+00 0.2857144D+00 0.3780456D+01
EXPONENTS  0.8784966D+00 0.2857144D+00 0.3780456D+01 0.8784966D+00 0.2857144D+00
EXPONENTS  0.7161684D+02 0.1304510D+02 0.3530512D+01 0.2941249D+01 0.6834831D+00
EXPONENTS  0.2222899D+00 0.2941249D+01 0.6834831D+00 0.2222899D+00 0.2941249D+01
EXPONENTS  0.6834831D+00 0.2222899D+00 0.2941249D+01 0.6834831D+00 0.2222899D+00
EXPONENTS  0.7161684D+02 0.1304510D+02 0.3530512D+01 0.2941249D+01 0.6834831D+00
EXPONENTS  0.2222899D+00 0.2941249D+01 0.6834831D+00 0.2222899D+00 0.2941249D+01
EXPONENTS  0.6834831D+00 0.2222899D+00 0.2941249D+01 0.6834831D+00 0.2222899D+00
EXPONENTS  0.7161684D+02 0.1304510D+02 0.3530512D+01 0.2941249D+01 0.6834831D+00
EXPONENTS  0.2222899D+00 0.2941249D+01 0.6834831D+00 0.2222899D+00 0.2941249D+01
EXPONENTS  0.6834831D+00 0.2222899D+00 0.2941249D+01 0.6834831D+00 0.2222899D+00
EXPONENTS  0.7161684D+02 0.1304510D+02 0.3530512D+01 0.2941249D+01 0.6834831D+00
EXPONENTS  0.2222899D+00 0.2941249D+01 0.6834831D+00 0.2222899D+00 0.2941249D+01
EXPONENTS  0.6834831D+00 0.2222899D+00 0.2941249D+01 0.6834831D+00 0.2222899D+00
EXPONENTS  0.7161684D+02 0.1304510D+02 0.3530512D+01 0.2941249D+01 0.6834831D+00
EXPONENTS  0.2222899D+00 0.2941249D+01 0.6834831D+00 0.2222899D+00 0.2941249D+01
EXPONENTS  0.6834831D+00 0.2222899D+00 0.2941249D+01 0.6834831D+00 0.2222899D+00
EXPONENTS  0.3425251D+01 0.6239137D+00 0.1688554D+00 0.3425251D+01 0.6239137D+00
EXPONENTS  0.1688554D+00 0.3425251D+01 0.6239137D+00 0.1688554D+00 0.3425251D+01
EXPONENTS  0.6239137D+00 0.1688554D+00 0.3425251D+01 0.6239137D+00 0.1688554D+00
EXPONENTS  0.3425251D+01 0.6239137D+00 0.1688554D+00 0.3425251D+01 0.6239137D+00
EXPONENTS  0.1688554D+00 0.3425251D+01 0.6239137D+00 0.1688554D+00 0.3425251D+01
EXPONENTS  0.6239137D+00 0.1688554D+00
MO    1     MO 0.0        OCC NO =    2.0000000  ORB. ENERGY =  -18.953850
  0.42244176D+01  0.40856728D+01  0.12733257D+01 -0.68696608D-02  0.91887264D-02
  0.69348689D-02  0.22814446D-02  0.14346336D-02  0.22727006D-03  0.49197878D-03
  0.30936946D-03  0.49009320D-04 -0.67304636D-02 -0.42322961D-02 -0.67046681D-03
 -0.15936412D-04 -0.15413004D-04 -0.48035602D-05  0.15151888D-06 -0.20266874D-06
 -0.15295712D-06 -0.99351981D-06 -0.62475192D-06 -0.98971200D-07  0.13676680D-06
  0.86002633D-07  0.13624262D-07  0.51565616D-07  0.32425843D-07  0.51367983D-08
  0.35894194D-02  0.34715302D-02  0.10819243D-02 -0.43217973D-04  0.57807530D-04
  0.43628205D-04  0.36238022D-03  0.22787441D-03  0.36099135D-04 -0.10016779D-02
 -0.62988194D-03 -0.99783883D-04  0.32622516D-03  0.20513914D-03  0.32497486D-04
 -0.10476164D-05 -0.10132090D-05 -0.31577298D-06  0.45089631D-07 -0.60311025D-07
 -0.45517630D-07 -0.40561171D-06 -0.25505953D-06 -0.40405714D-07 -0.41257933D-06
 -0.25944095D-06 -0.41099806D-07  0.44153199D-06  0.27764717D-06  0.43983976D-07
  0.61304907D-05  0.59291437D-05  0.18478551D-05 -0.32927948D-05  0.44043791D-05
  0.33240506D-05 -0.34587476D-04 -0.21749533D-04 -0.34454914D-05  0.57722764D-04
  0.36297623D-04  0.57501533D-05 -0.99046213D-05 -0.62282917D-05 -0.98666604D-06
 -0.38946789D-04 -0.37667639D-04 -0.11739358D-04 -0.15634962D-04  0.20913024D-04
  0.15783372D-04 -0.14482087D-04 -0.91067251D-05 -0.14426583D-05 -0.72371236D-04
 -0.45508975D-04 -0.72093863D-05  0.15943844D-04  0.10025917D-04  0.15882737D-05
 -0.66873079D-04 -0.64676730D-04 -0.20156912D-04 -0.47002023D-04  0.62869003D-04
  0.47448174D-04  0.77207438D-04  0.48550109D-04  0.76911529D-05 -0.22723990D-03
 -0.14289455D-03 -0.22636897D-04  0.17285061D-03  0.10869310D-03  0.17218814D-04
  0.27002538D-05  0.26115680D-05  0.81391166D-06  0.36238775D-05 -0.48472289D-05
 -0.36582759D-05  0.52507766D-05  0.33018293D-05  0.52306523D-06  0.15209099D-06
  0.95638894D-07  0.15150808D-07 -0.22475228D-05 -0.14133026D-05 -0.22389088D-06
  0.15969906D-02  0.15445398D-02  0.48136559D-03  0.77777976D-03 -0.10403433D-02
 -0.78516258D-03 -0.31128782D-03 -0.19574613D-03 -0.31009476D-04  0.31196968D-02
  0.19617490D-02  0.31077401D-03 -0.31893071D-02 -0.20055219D-02 -0.31770836D-03
 -0.96112045D-06 -0.92955386D-06 -0.28970134D-06 -0.66826944D-06  0.89386436D-06
  0.67461277D-06  0.24694157D-05  0.15528348D-05  0.24599513D-06  0.56700296D-06
  0.35654667D-06  0.56482983D-07 -0.33532983D-06 -0.21086440D-06 -0.33404463D-07
  0.22194192D-05  0.21465256D-05  0.66897829D-06 -0.58057086D-04 -0.56150286D-04
 -0.17499591D-04 -0.22072976D-04 -0.21348021D-04 -0.66532458D-05  0.79918936D-06
  0.77294116D-06  0.24089200D-06  0.91987154D-05  0.88965970D-05  0.27726807D-05
 -0.37775222D-04 -0.36534550D-04 -0.11386223D-04  0.37991602D-06  0.36743824D-06
  0.11451445D-06 -0.17533919D-02 -0.16958043D-02 -0.52850814D-03 -0.98766472D-08
 -0.95522632D-08 -0.29770232D-08
MO    2     MO 0.0        OCC NO =    2.0000000  ORB. ENERGY =  -18.923378
  0.16651487D-04  0.16104593D-04  0.50190982D-05  0.13111590D-06 -0.17537811D-06
 -0.13236048D-06  0.49226010D-06  0.30954636D-06  0.49037344D-07 -0.37901947D-06
 -0.23833762D-06 -0.37756683D-07  0.48761669D-06  0.30662646D-06  0.48574783D-07
  0.42244556D+01  0.40857095D+01  0.12733372D+01 -0.68461123D-02  0.91572283D-02
  0.69110968D-02 -0.24916300D-02 -0.15668038D-02 -0.24820805D-03  0.33993051D-02
  0.21375742D-02  0.33862767D-03  0.56300219D-02  0.35403089D-02  0.56084441D-03
 -0.10656420D-04 -0.10306425D-04 -0.32120626D-05  0.20369365D-06 -0.27245671D-06
 -0.20562714D-06  0.39354569D-06  0.24747209D-06  0.39203737D-07 -0.22396696D-06
 -0.14083643D-06 -0.22310857D-07 -0.11619358D-05 -0.73065639D-06 -0.11574825D-06
  0.43897517D-02  0.42455767D-02  0.13231608D-02 -0.57886647D-04  0.77428067D-04
  0.58436117D-04 -0.88312750D-03 -0.55533427D-03 -0.87974279D-04 -0.52710952D-03
 -0.33146061D-03 -0.52508930D-04 -0.49424804D-03 -0.31079643D-03 -0.49235376D-04
 -0.38236640D-06 -0.36980814D-06 -0.11525304D-06 -0.61033377D-08  0.81637072D-08
  0.61612716D-08 -0.34792274D-05 -0.21878315D-05 -0.34658927D-06 -0.33162588D-06
 -0.20853526D-06 -0.33035488D-07 -0.31307903D-06 -0.19687249D-06 -0.31187911D-07
  0.22253157D-04  0.21522284D-04  0.67075560D-05  0.50432997D-05 -0.67458208D-05
 -0.50911716D-05  0.79485735D-04  0.49982763D-04  0.79181094D-05  0.14247276D-04
  0.89590692D-05  0.14192671D-05 -0.10744544D-04 -0.67564575D-05 -0.10703364D-05
  0.30735384D-05  0.29725925D-05  0.92642724D-06  0.26201089D-05 -0.35046073D-05
 -0.26449794D-05  0.72911461D-05  0.45848683D-05  0.72632017D-06  0.49599177D-05
  0.31189293D-05  0.49409081D-06 -0.79048933D-05 -0.49708091D-05 -0.78745967D-06
 -0.80089519D-04 -0.77459096D-04 -0.24140617D-04 -0.65002227D-04  0.86945729D-04
  0.65619239D-04 -0.18989676D-03 -0.11941218D-03 -0.18916896D-04 -0.19871612D-03
 -0.12495803D-03 -0.19795452D-04 -0.13172597D-03 -0.82832826D-04 -0.13122111D-04
 -0.17528217D-05 -0.16952529D-05 -0.52833627D-06 -0.66893765D-06  0.89475815D-06
  0.67528733D-06 -0.31309735D-05 -0.19688402D-05 -0.31189736D-06 -0.83102710D-06
 -0.52257214D-06 -0.82784207D-07 -0.11549447D-05 -0.72626022D-06 -0.11505182D-06
  0.16058073D-02  0.15530669D-02  0.48402313D-03  0.76690129D-03 -0.10257924D-02
 -0.77418085D-03  0.18503363D-02  0.11635411D-02  0.18432446D-03  0.24956699D-02
  0.15693442D-02  0.24861049D-03  0.30608640D-02  0.19247534D-02  0.30491328D-03
 -0.10122740D-04 -0.97902731D-05 -0.30512005D-05  0.33880638D-05  0.32767878D-05
  0.10212316D-05  0.86191428D-06  0.83360597D-06  0.25979857D-06 -0.16507435D-05
 -0.15965273D-05 -0.49756782D-06 -0.62020649D-04 -0.59983671D-04 -0.18694290D-04
  0.28154352D-06  0.27229663D-06  0.84862966D-07  0.12960014D-06  0.12534362D-06
  0.39064130D-07  0.47410017D-07  0.45852905D-07  0.14290348D-07 -0.17582240D-02
 -0.17004777D-02 -0.52996463D-03
MO    3     MO 0.0        OCC NO =    2.0000000  ORB. ENERGY =  -18.888335
 -0.39069674D-02 -0.37786488D-02 -0.11776398D-02 -0.54132310D-04  0.72406337D-04
  0.54646143D-04  0.45402151D-03  0.28550091D-03  0.45228141D-04 -0.35530904D-03
 -0.22342786D-03 -0.35394727D-04 -0.74824471D-03 -0.47051635D-03 -0.74537695D-04
  0.11222800D-04  0.10854203D-04  0.33827811D-05  0.75270611D-07 -0.10068052D-06
 -0.75985093D-07 -0.10719104D-05 -0.67404603D-06 -0.10678022D-06  0.27306544D-06
  0.17171088D-06  0.27201888D-07  0.42012940D-06  0.26418864D-06  0.41851919D-07
  0.42246648D+01  0.40859119D+01  0.12734003D+01 -0.68893200D-02  0.92150221D-02
  0.69547146D-02 -0.36979302D-02 -0.23253577D-02 -0.36837573D-03  0.72321199D-03
  0.45477511D-03  0.72044018D-04  0.88592277D-02  0.55709201D-02  0.88252735D-03
 -0.12662531D-04 -0.12246649D-04 -0.38167456D-05  0.11863115D-06 -0.15867875D-06
 -0.11975722D-06 -0.10430745D-05 -0.65591326D-06 -0.10390768D-06 -0.56890659D-06
 -0.35774373D-06 -0.56672617D-07  0.34581004D-06  0.21745463D-06  0.34448467D-07
 -0.13459088D-03 -0.13017044D-03 -0.40568441D-04 -0.78028353D-04  0.10436923D-03
  0.78769012D-04  0.21220289D-03  0.13343887D-03  0.21138959D-04 -0.21140361D-03
 -0.13293626D-03 -0.21059337D-04 -0.43890468D-03 -0.27599504D-03 -0.43722251D-04
 -0.78867944D-05 -0.76277641D-05 -0.23772409D-05 -0.43181325D-05  0.57758510D-05
  0.43591209D-05  0.14154958D-04  0.89010172D-05  0.14100707D-05  0.13529549D-04
  0.85077437D-05  0.13477695D-05  0.10412908D-04  0.65479157D-05  0.10372999D-05
 -0.68224095D-04 -0.65983375D-04 -0.20564136D-04 -0.33323053D-04  0.44572276D-04
  0.33639361D-04  0.12200805D-03  0.76721938D-04  0.12154044D-04  0.80669233D-04
  0.50726978D-04  0.80360056D-05 -0.43548384D-03 -0.27384392D-03 -0.43381479D-04
 -0.66704250D-05 -0.64513446D-05 -0.20106023D-05  0.16312905D-06 -0.21819829D-06
 -0.16467750D-06  0.31325156D-04  0.19698099D-04  0.31205098D-05 -0.23357284D-05
 -0.14687687D-05 -0.23267764D-06  0.34890551D-05  0.21940115D-05  0.34756828D-06
  0.18351443D-02  0.17748716D-02  0.55314997D-03  0.12482981D-02 -0.16696996D-02
 -0.12601472D-02 -0.23818017D-02 -0.14977408D-02 -0.23726731D-03  0.41537314D-03
  0.26119778D-03  0.41378116D-04  0.57764971D-02  0.36324164D-02  0.57543579D-03
 -0.21202754D-05 -0.20506380D-05 -0.63909431D-06 -0.13913031D-05  0.18609803D-05
  0.14045096D-05  0.59601770D-05  0.37479192D-05  0.59373337D-06  0.19235370D-05
  0.12095717D-05  0.19161648D-06 -0.94938772D-06 -0.59700047D-06 -0.94574905D-07
  0.48464225D-06  0.46872488D-06  0.14608107D-06 -0.10082788D-04 -0.97516339D-05
 -0.30391583D-05  0.92880650D-05  0.89830121D-05  0.27996125D-05  0.44822794D-05
  0.43350655D-05  0.13510506D-05  0.97438948D-05  0.94238708D-05  0.29370089D-05
 -0.30671721D-03 -0.29664354D-03 -0.92450833D-04  0.58248621D-05  0.56335531D-05
  0.17557324D-05 -0.32017786D-04 -0.30966209D-04 -0.96508148D-05  0.59805246D-08
  0.57841031D-08  0.18026523D-08
MO    4     MO 0.0        OCC NO =    2.0000000  ORB. ENERGY =  -18.863553
  0.11357733D-05  0.10984705D-05  0.34234527D-06  0.45416701D-07 -0.60748507D-07
 -0.45847805D-07  0.12949959D-07  0.81432817D-08  0.12900326D-08 -0.16440149D-06
 -0.10338007D-06 -0.16377140D-07  0.41588095D-06  0.26151710D-06  0.41428703D-07
 -0.47491497D-02 -0.45931708D-02 -0.14314907D-02 -0.65767677D-04  0.87969581D-04
  0.66391955D-04 -0.67644965D-03 -0.42536969D-03 -0.67385706D-04  0.27043635D-03
  0.17005764D-03  0.26939987D-04  0.60819465D-03  0.38244912D-03  0.60586366D-04
  0.13089112D-04  0.12659219D-04  0.39453257D-05  0.55561434D-07 -0.74317906D-07
 -0.56088832D-07  0.70916431D-06  0.44594155D-06  0.70644634D-07 -0.14782755D-07
 -0.92957930D-08 -0.14726098D-08 -0.13907206D-06 -0.87452242D-07 -0.13853904D-07
  0.42246640D+01  0.40859111D+01  0.12734000D+01 -0.69017851D-02  0.92316952D-02
  0.69672981D-02  0.47667618D-02  0.29974677D-02  0.47484925D-03 -0.40863301D-02
 -0.25695940D-02 -0.40706686D-03 -0.74997062D-02 -0.47160165D-02 -0.74709625D-03
  0.89362230D-06  0.86427258D-06  0.26935601D-06  0.33963056D-06 -0.45428331D-06
 -0.34285439D-06  0.28430190D-05  0.17877666D-05  0.28321227D-06  0.22300869D-05
  0.14023385D-05  0.22215398D-06  0.12125663D-05  0.76249426D-06  0.12079190D-06
 -0.24188965D-04 -0.23394513D-04 -0.72910480D-05 -0.39184901D-05  0.52412970D-05
  0.39556850D-05 -0.23671725D-04 -0.14885416D-04 -0.23581000D-05  0.41827363D-04
  0.26302168D-04  0.41667053D-05  0.98381913D-04  0.61865187D-04  0.98004850D-05
 -0.36205764D-07 -0.35016639D-07 -0.10913157D-07 -0.75403877D-06  0.10085878D-05
  0.76119624D-06 -0.32506117D-05 -0.20440719D-05 -0.32381533D-06 -0.26371808D-06
 -0.16583301D-06 -0.26270735D-07 -0.99033889D-06 -0.62275167D-06 -0.98654327D-07
 -0.48651717D-04 -0.47053823D-04 -0.14664621D-04 -0.12734232D-04  0.17033064D-04
  0.12855108D-04  0.70503870D-05  0.44334725D-05  0.70233653D-06  0.25078392D-03
  0.15769966D-03  0.24982276D-04  0.38829041D-03  0.24416743D-03  0.38680223D-04
 -0.11589992D-05 -0.11209335D-05 -0.34934602D-06 -0.37538319D-06  0.50210534D-06
  0.37894639D-06 -0.22165454D-05 -0.13938232D-05 -0.22080502D-06  0.81024883D-07
  0.50950621D-07  0.80714343D-08  0.29379109D-07  0.18474372D-07  0.29266509D-08
  0.18379060D-02  0.17775426D-02  0.55398240D-03  0.12634376D-02 -0.16899498D-02
 -0.12754303D-02  0.31751061D-02  0.19965919D-02  0.31629370D-03 -0.26249882D-02
 -0.16506630D-02 -0.26149275D-03 -0.48535918D-02 -0.30520688D-02 -0.48349898D-03
 -0.52826821D-04 -0.51091802D-04 -0.15923083D-04 -0.24758460D-05 -0.23945305D-05
 -0.74627055D-06  0.60733547D-06  0.58738843D-06  0.18306332D-06  0.11390778D-04
  0.11016665D-04  0.34334132D-05  0.10156893D-04  0.98233050D-05  0.30614951D-05
  0.87283901D-07  0.84417189D-07  0.26309151D-07 -0.17288830D-06 -0.16721003D-06
 -0.52112064D-07  0.90659297D-08  0.87681725D-08  0.27326564D-08 -0.40970961D-04
 -0.39625329D-04 -0.12349484D-04
MO    5     MO 0.0        OCC NO =    2.0000000  ORB. ENERGY =  -14.101607
  0.26052148D-04  0.25196503D-04  0.78526495D-05  0.40042295D-05 -0.53559805D-05
 -0.40422384D-05  0.53521531D-04  0.33655775D-04  0.53316402D-05 -0.63225418D-04
 -0.39757839D-04 -0.62983097D-05 -0.56280480D-04 -0.35390676D-04 -0.56064777D-05
 -0.83616118D-06 -0.80869869D-06 -0.25203606D-06 -0.49033663D-06  0.65586485D-06
  0.49499099D-06 -0.15221378D-06 -0.95716109D-07 -0.15163040D-07  0.13629061D-05
  0.85703193D-06  0.13576826D-06  0.12764557D-05  0.80266962D-06  0.12715635D-06
 -0.30286301D-03 -0.29291592D-03 -0.91289097D-04 -0.75388484D-04  0.10083819D-03
  0.76104084D-04 -0.16256694D-03 -0.10222646D-03 -0.16194388D-04  0.52956056D-03
  0.33300189D-03  0.52753094D-04 -0.31938952D-03 -0.20084070D-03 -0.31816541D-04
  0.18782847D-05  0.18165952D-05  0.56615339D-06  0.10927500D-05 -0.14616414D-05
 -0.11031226D-05 -0.48879984D-06 -0.30737046D-06 -0.48692644D-07  0.23524846D-05
  0.14793054D-05  0.23434683D-06  0.73258070D-05  0.46066640D-05  0.72977298D-06
  0.34289903D+01  0.33163701D+01  0.10335677D+01 -0.67844164D-02  0.90747051D-02
  0.68488153D-02  0.60058633D-02  0.37766480D-02  0.59828450D-03 -0.26942001D-02
 -0.16941853D-02 -0.26838742D-03  0.10978670D-02  0.69036824D-03  0.10936593D-03
 -0.18505711D-04 -0.17897918D-04 -0.55779993D-05 -0.44510971D-04  0.59537019D-04
  0.44933477D-04  0.60091627D-04  0.37787228D-04  0.59861318D-05  0.81147473D-04
  0.51027708D-04  0.80836463D-05 -0.10239329D-03 -0.64387651D-04 -0.10200086D-04
  0.15985649D-02  0.15460624D-02  0.48184011D-03  0.92591433D-03 -0.12384852D-02
 -0.93470327D-03 -0.16375916D-03 -0.10297616D-03 -0.16313153D-04 -0.29747369D-02
 -0.18705944D-02 -0.29633358D-03  0.32283992D-02  0.20301040D-02  0.32160259D-03
 -0.41716593D-04 -0.40346472D-04 -0.12574233D-04 -0.30185224D-04  0.40375175D-04
  0.30471747D-04 -0.22141806D-04 -0.13923362D-04 -0.22056944D-05  0.40144435D-04
  0.25243898D-04  0.39990576D-05 -0.12581342D-03 -0.79114856D-04 -0.12533122D-04
 -0.81319437D-04 -0.78648619D-04 -0.24511339D-04 -0.82700635D-04  0.11061878D-03
  0.83485644D-04 -0.90673772D-04 -0.57018101D-04 -0.90326251D-05  0.30795034D-03
  0.19364744D-03  0.30677008D-04 -0.16444147D-03 -0.10340521D-03 -0.16381122D-04
 -0.24113736D-06 -0.23321756D-06 -0.72683725D-07  0.87113958D-06 -0.11652196D-05
 -0.87940859D-06 -0.10104419D-04 -0.63539298D-05 -0.10065692D-05  0.10803010D-04
  0.67932226D-05  0.10761606D-05  0.77408398D-05  0.48676478D-05  0.77111719D-06
 -0.16002605D-04 -0.15477023D-04 -0.48235121D-05 -0.28772680D-04 -0.27827683D-04
 -0.86726734D-05  0.14205442D-03  0.13738885D-03  0.42818103D-04 -0.13922737D-03
 -0.13465465D-03 -0.41965973D-04  0.25154483D-05  0.24328321D-05  0.75820751D-06
 -0.21507103D-02 -0.20800734D-02 -0.64826802D-03 -0.21643086D-02 -0.20932251D-02
 -0.65236683D-03 -0.70109303D-06 -0.67806666D-06 -0.21132376D-06 -0.11828504D-06
 -0.11440014D-06 -0.35653526D-07
MO    6     MO 0.0        OCC NO =    2.0000000  ORB. ENERGY =  -10.111547
  0.26002001D-02  0.25148003D-02  0.78375342D-03  0.12926684D-02 -0.17290484D-02
 -0.13049386D-02  0.87940608D-03  0.55299414D-03  0.87603563D-04 -0.49466511D-02
 -0.31105870D-02 -0.49276923D-03  0.40371978D-02  0.25386983D-02  0.40217247D-03
 -0.41862250D-05 -0.40487346D-05 -0.12618137D-05 -0.13556193D-05  0.18132504D-05
  0.13684871D-05  0.11165422D-04  0.70211173D-05  0.11122629D-05 -0.18295911D-05
 -0.11504960D-05 -0.18225789D-06 -0.25140830D-05 -0.15809229D-05 -0.25044474D-06
  0.23429079D-02  0.22659586D-02  0.70620031D-03  0.17999655D-02 -0.24075992D-02
 -0.18170510D-02  0.20064807D-02  0.12617289D-02  0.19987906D-03 -0.14362401D-03
 -0.90314629D-04 -0.14307355D-04 -0.51128080D-02 -0.32150709D-02 -0.50932125D-03
 -0.26518577D-05 -0.25647613D-05 -0.79932408D-06 -0.84480231D-06  0.11299913D-05
  0.85282132D-06  0.76839402D-05  0.48318678D-05  0.76544904D-06  0.58574468D-05
  0.36833197D-05  0.58349973D-06  0.28873049D-06  0.18156148D-06  0.28762389D-07
 -0.16595672D-03 -0.16050611D-03 -0.50022744D-04 -0.13172381D-03  0.17619124D-03
  0.13297416D-03  0.89761753D-04  0.56444599D-04  0.89417728D-05 -0.21251746D-03
 -0.13363668D-03 -0.21170296D-04 -0.12858724D-03 -0.80859107D-04 -0.12809441D-04
 -0.10110674D-02 -0.97786040D-03 -0.30475637D-03 -0.27311977D-04  0.36531976D-04
  0.27571227D-04 -0.49099616D-04 -0.30875156D-04 -0.48911435D-05  0.17968345D-03
  0.11298977D-03  0.17899478D-04  0.11893461D-03  0.74789272D-04  0.11847877D-04
 -0.24066242D-01 -0.23275822D-01 -0.72540569D-02  0.10989827D-02 -0.14699782D-02
 -0.11094145D-02 -0.23606459D-02 -0.14844375D-02 -0.23515984D-03  0.35116683D-02
  0.22082313D-02  0.34982093D-03  0.16114890D-02  0.10133475D-02  0.16053127D-03
  0.11844000D-03  0.11455001D-03  0.35700235D-04 -0.32323821D-04  0.43235721D-04
  0.32630644D-04 -0.86329260D-04 -0.54286155D-04 -0.85998391D-05 -0.78400041D-04
 -0.49300050D-04 -0.78099562D-05 -0.36244840D-04 -0.22791728D-04 -0.36105927D-05
  0.26839292D+01  0.25957795D+01  0.80899110D+00 -0.60529247D-02  0.80962758D-02
  0.61103801D-02  0.20926462D-03  0.13159121D-03  0.20846258D-04  0.40620047D-04
  0.25542975D-04  0.40464364D-05 -0.75988878D-03 -0.47783846D-03 -0.75697640D-04
 -0.32483397D-03 -0.31416527D-03 -0.97911593D-04  0.72201413D-05 -0.96575223D-05
 -0.72886762D-05 -0.29166869D-04 -0.18340910D-04 -0.29055083D-05 -0.12897685D-04
 -0.81104105D-05 -0.12848253D-05  0.11246243D-04  0.70719397D-05  0.11203141D-05
 -0.51567462D-04 -0.49873804D-04 -0.15543486D-04 -0.54863921D-04 -0.53061996D-04
 -0.16537106D-04 -0.14558903D-04 -0.14080737D-04 -0.43883508D-05 -0.10562604D-05
 -0.10215691D-05 -0.31837846D-06 -0.13476077D-03 -0.13033475D-03 -0.40619649D-04
 -0.32850017D-03 -0.31771106D-03 -0.99016661D-04 -0.12889577D-04 -0.12466238D-04
 -0.38851817D-05 -0.47432498D-03 -0.45874647D-03 -0.14297124D-03  0.18370375D-06
  0.17767027D-06  0.55372063D-07
MO    7     MO 0.0        OCC NO =    2.0000000  ORB. ENERGY =  -10.093746
 -0.11685000D-05 -0.11301223D-05 -0.35220976D-06 -0.13856171D-06  0.18533748D-06
  0.13987696D-06 -0.49079945D-05 -0.30862787D-05 -0.48891839D-06 -0.30968897D-06
 -0.19474073D-06 -0.30850204D-07  0.54370137D-06  0.34189401D-06  0.54161756D-07
  0.26468446D-02  0.25599129D-02  0.79781303D-03  0.12859713D-02 -0.17200905D-02
 -0.12981780D-02 -0.34737365D-02 -0.21843787D-02 -0.34604229D-03 -0.35968784D-02
 -0.22618136D-02 -0.35830928D-03 -0.41794914D-02 -0.26281764D-02 -0.41634729D-03
 -0.26708572D-05 -0.25831368D-05 -0.80505091D-06 -0.11277238D-05  0.15084217D-05
  0.11384284D-05 -0.38350149D-05 -0.24115603D-05 -0.38203166D-06  0.33878706D-06
  0.21303839D-06  0.33748861D-07  0.53096668D-05  0.33388610D-05  0.52893167D-06
  0.23096565D-02  0.22337992D-02  0.69617764D-03  0.17952516D-02 -0.24012941D-02
 -0.18122925D-02 -0.25642567D-02 -0.16124734D-02 -0.25544289D-03  0.22118964D-02
  0.13908998D-02  0.22034190D-03  0.40664784D-02  0.25571107D-02  0.40508930D-03
 -0.32813955D-05 -0.31736229D-05 -0.98907964D-06 -0.24511448D-05  0.32786042D-05
  0.24744115D-05  0.31818641D-05  0.20008415D-05  0.31696692D-06  0.13000939D-05
  0.81753393D-06  0.12951111D-06  0.94727883D-05  0.59567435D-05  0.94364824D-06
 -0.95109319D-03 -0.91985593D-03 -0.28667892D-03 -0.46706478D-04  0.62473687D-04
  0.47149824D-04  0.15707474D-03  0.98772812D-04  0.15647273D-04  0.67653135D-04
  0.42542107D-04  0.67393844D-05 -0.80229845D-04 -0.50450680D-04 -0.79922353D-05
 -0.97895548D-03 -0.94680312D-03 -0.29507718D-03  0.24974853D-04 -0.33405883D-04
 -0.25211918D-04  0.90278026D-04  0.56769245D-04  0.89932022D-05  0.43699627D-04
  0.27479498D-04  0.43532142D-05  0.24170129D-04  0.15198826D-04  0.24077494D-05
 -0.17168391D-01 -0.16604520D-01 -0.51749036D-02  0.10874998D-02 -0.14546188D-02
 -0.10978225D-02  0.44453707D-02  0.27953684D-02  0.44283332D-03  0.27710580D-03
  0.17425156D-03  0.27604375D-04 -0.11418774D-02 -0.71804316D-03 -0.11375010D-03
  0.33122891D-03  0.32035018D-03  0.99839158D-04 -0.65813536D-06  0.88030921D-06
  0.66438249D-06  0.62649525D-05  0.39395702D-05  0.62409411D-06  0.73574176D-05
  0.46265416D-05  0.73292192D-06  0.11983176D-04  0.75353428D-05  0.11937249D-05
  0.26840519D+01  0.25958981D+01  0.80902806D+00 -0.60398259D-02  0.80787551D-02
  0.60971570D-02 -0.26386261D-03 -0.16592389D-03 -0.26285132D-04  0.23943805D-03
  0.15056507D-03  0.23852037D-04  0.38050581D-03  0.23927227D-03  0.37904747D-04
 -0.86978594D-04 -0.84121909D-04 -0.26217125D-04 -0.38667308D-04 -0.37397337D-04
 -0.11655116D-04  0.59743907D-06  0.57781706D-06  0.18008034D-06 -0.36307395D-04
 -0.35114932D-04 -0.10943791D-04 -0.12547043D-04 -0.12134954D-04 -0.37819350D-05
 -0.19540390D-05 -0.18898615D-05 -0.58898728D-06 -0.10862366D-05 -0.10505607D-05
 -0.32741389D-06  0.18188929D-06  0.17591540D-06  0.54825147D-07 -0.47000016D-03
 -0.45456369D-03 -0.14166765D-03
MO    8     MO 0.0        OCC NO =    2.0000000  ORB. ENERGY =  -10.057827
 -0.68804399D-04 -0.66544619D-04 -0.20739051D-04 -0.60484337D-04  0.80902688D-04
  0.61058465D-04 -0.43630053D-04 -0.27435748D-04 -0.43462835D-05  0.20237377D-03
  0.12725806D-03  0.20159815D-04 -0.71084385D-04 -0.44699769D-04 -0.70811944D-05
  0.42841427D-05  0.41434363D-05  0.12913281D-05  0.19945720D-05 -0.26679012D-05
 -0.20135048D-05  0.10235312D-05  0.64362387D-06  0.10196083D-06 -0.12353326D-04
 -0.77681030D-05 -0.12305980D-05 -0.72786455D-05 -0.45770076D-05 -0.72507490D-06
 -0.10658706D-03 -0.10308636D-03 -0.32127516D-04 -0.43940994D-04  0.58774629D-04
  0.44358089D-04 -0.27830863D-03 -0.17500793D-03 -0.27724197D-04  0.53983173D-03
  0.33946068D-03  0.53776275D-04  0.55446261D-04  0.34866097D-04  0.55233756D-05
  0.26803388D-05  0.25923070D-05  0.80790886D-06 -0.19409002D-05  0.25961108D-05
  0.19593236D-05 -0.38025404D-05 -0.23911394D-05 -0.37879666D-06 -0.14668156D-04
 -0.92237299D-05 -0.14611938D-05 -0.23434368D-04 -0.14736159D-04 -0.23344552D-05
  0.27007810D-02  0.26120778D-02  0.81407055D-03  0.11493696D-02 -0.15373747D-02
 -0.11602796D-02  0.28462534D-03  0.17898005D-03  0.28353447D-04  0.37904086D-02
  0.23835107D-02  0.37758813D-03 -0.43198126D-02 -0.27164141D-02 -0.43032563D-03
 -0.36674795D-01 -0.35470265D-01 -0.11054532D-01  0.12112447D-02 -0.16201376D-02
 -0.12227420D-02 -0.44630670D-02 -0.28064963D-02 -0.44459617D-03 -0.12374466D-02
 -0.77813963D-03 -0.12327039D-03  0.11647393D-02  0.73241936D-03  0.11602753D-03
  0.26817245D+01  0.25936472D+01  0.80832653D+00 -0.68869378D-02  0.92118357D-02
  0.69523098D-02  0.28947186D-03  0.18202767D-03  0.28836242D-04 -0.22063151D-03
 -0.13873901D-03 -0.21978590D-04  0.49309161D-03  0.31006924D-03  0.49120177D-04
 -0.15517061D-02 -0.15007426D-02 -0.46771591D-03 -0.39021304D-04  0.52194147D-04
  0.39391701D-04 -0.50407388D-04 -0.31697518D-04 -0.50214195D-05  0.44640876D-04
  0.28071381D-04  0.44469783D-05  0.11915199D-03  0.74925969D-04  0.11869532D-04
  0.28160537D-01  0.27235646D-01  0.84881611D-02  0.10743398D-02 -0.14370163D-02
 -0.10845376D-02  0.25104590D-02  0.15786440D-02  0.25008373D-03 -0.38651405D-02
 -0.24305041D-02 -0.38503268D-03 -0.15476298D-02 -0.97319114D-03 -0.15416983D-03
  0.10442475D-02  0.10099507D-02  0.31475751D-03  0.17208080D-04 -0.23017197D-04
 -0.17371422D-04 -0.82051765D-04 -0.51596352D-04 -0.81737290D-05 -0.11980716D-04
 -0.75337960D-05 -0.11934799D-05 -0.50715958D-04 -0.31891555D-04 -0.50521582D-05
  0.62517713D-04  0.60464410D-04  0.18844116D-04  0.60393552D-04  0.58410015D-04
  0.18203850D-04 -0.25404589D-02 -0.24570212D-02 -0.76574619D-03 -0.40084593D-04
 -0.38768074D-04 -0.12082315D-04 -0.19952892D-05 -0.19297569D-05 -0.60142093D-06
 -0.13297367D-03 -0.12860634D-03 -0.40080979D-04 -0.11847581D-03 -0.11458465D-03
 -0.35711030D-04 -0.43714656D-04 -0.42278912D-04 -0.13176490D-04 -0.63823417D-06
 -0.61727231D-06 -0.19237682D-06
MO    9     MO 0.0        OCC NO =    2.0000000  ORB. ENERGY =  -10.022819
  0.38595556D-04  0.37327941D-04  0.11633489D-04  0.15164331D-04 -0.20283518D-04
 -0.15308274D-04  0.14219577D-04  0.89416516D-05  0.14165078D-05 -0.54828215D-04
 -0.34477453D-04 -0.54618078D-05 -0.37715704D-05 -0.23716647D-05 -0.37571153D-06
 -0.10384832D-03 -0.10043757D-03 -0.31302005D-04 -0.77720944D-04  0.10395804D-03
  0.78458685D-04  0.18490095D-03  0.11627068D-03  0.18419229D-04  0.11460157D-03
  0.72064541D-04  0.11416234D-04  0.14133649D-03  0.88876178D-04  0.14079480D-04