 opt glutamine pbe0
GAUSSIAN             60 MOL ORBITALS    180 PRIMITIVES       20 NUCLEI
  O    1    (CENTRE  1)  -4.27278925 -3.26130699 -0.29435382  CHARGE =  8.0
  O    2    (CENTRE  2)  -4.55823560  0.00325994  2.63240715  CHARGE =  8.0
  O    3    (CENTRE  3)   5.45436308 -1.26336546 -1.90573358  CHARGE =  8.0
  N    4    (CENTRE  4)  -2.71849727  3.61424093 -0.74663707  CHARGE =  7.0
  N    5    (CENTRE  5)   6.16052470  0.09400043  2.27165993  CHARGE =  7.0
  C    6    (CENTRE  6)   0.20943691  0.04144741 -1.87545381  CHARGE =  6.0
  C    7    (CENTRE  7)  -2.58112567  0.88782042 -1.52448034  CHARGE =  6.0
  C    8    (CENTRE  8)   1.84451600  0.57584706  0.46983797  CHARGE =  6.0
  C    9    (CENTRE  9)  -3.91127183 -0.77454674  0.51349315  CHARGE =  6.0
  C   10    (CENTRE 10)   4.62827112 -0.25540464  0.04441333  CHARGE =  6.0
  H   11    (CENTRE 11)   0.25124167 -1.98282133 -2.32340154  CHARGE =  1.0
  H   12    (CENTRE 12)   0.99970174  1.06148534 -3.49662233  CHARGE =  1.0
  H   13    (CENTRE 13)  -3.56575219  0.62769528 -3.33914463  CHARGE =  1.0
  H   14    (CENTRE 14)   1.79417443  2.60618929  0.89281614  CHARGE =  1.0
  H   15    (CENTRE 15)   1.10715150 -0.42668846  2.13014090  CHARGE =  1.0
  H   16    (CENTRE 16)  -2.94275607  3.50647291  1.22913740  CHARGE =  1.0
  H   17    (CENTRE 17)  -4.52034138  4.21501047 -1.32037016  CHARGE =  1.0
  H   18    (CENTRE 18)   5.68348913  1.71388568  3.27262464  CHARGE =  1.0
  H   19    (CENTRE 19)   8.07477788  0.12432312  1.83091540  CHARGE =  1.0
  H   20    (CENTRE 20)  -5.10154364 -4.08292285  1.22332428  CHARGE =  1.0
CENTRE ASSIGNMENTS    1  1  1  1  1  1  1  1  1  1  1  1  1  1  1  2  2  2  2  2
CENTRE ASSIGNMENTS    2  2  2  2  2  2  2  2  2  2  3  3  3  3  3  3  3  3  3  3
CENTRE ASSIGNMENTS    3  3  3  3  3  4  4  4  4  4  4  4  4  4  4  4  4  4  4  4
CENTRE ASSIGNMENTS    5  5  5  5  5  5  5  5  5  5  5  5  5  5  5  6  6  6  6  6
CENTRE ASSIGNMENTS    6  6  6  6  6  6  6  6  6  6  7  7  7  7  7  7  7  7  7  7
CENTRE ASSIGNMENTS    7  7  7  7  7  8  8  8  8  8  8  8  8  8  8  8  8  8  8  8
CENTRE ASSIGNMENTS    9  9  9  9  9  9  9  9  9  9  9  9  9  9  9 10 10 10 10 10
CENTRE ASSIGNMENTS   10 10 10 10 10 10 10 10 10 10 11 11 11 12 12 12 13 13 13 14
CENTRE ASSIGNMENTS   14 14 15 15 15 16 16 16 17 17 17 18 18 18 19 19 19 20 20 20
TYPE ASSIGNMENTS      1  1  1  1  1  1  2  2  2  3  3  3  4  4  4  1  1  1  1  1
TYPE ASSIGNMENTS      1  2  2  2  3  3  3  4  4  4  1  1  1  1  1  1  2  2  2  3
TYPE ASSIGNMENTS      3  3  4  4  4  1  1  1  1  1  1  2  2  2  3  3  3  4  4  4
TYPE ASSIGNMENTS      1  1  1  1  1  1  2  2  2  3  3  3  4  4  4  1  1  1  1  1
TYPE ASSIGNMENTS      1  2  2  2  3  3  3  4  4  4  1  1  1  1  1  1  2  2  2  3
TYPE ASSIGNMENTS      3  3  4  4  4  1  1  1  1  1  1  2  2  2  3  3  3  4  4  4
TYPE ASSIGNMENTS      1  1  1  1  1  1  2  2  2  3  3  3  4  4  4  1  1  1  1  1
TYPE ASSIGNMENTS      1  2  2  2  3  3  3  4  4  4  1  1  1  1  1  1  1  1  1  1
TYPE ASSIGNMENTS      1  1  1  1  1  1  1  1  1  1  1  1  1  1  1  1  1  1  1  1
EXPONENTS  0.1307093D+03 0.2380887D+02 0.6443608D+01 0.5033151D+01 0.1169596D+01
EXPONENTS  0.3803890D+00 0.5033151D+01 0.1169596D+01 0.3803890D+00 0.5033151D+01
EXPONENTS  0.1169596D+01 0.3803890D+00 0.5033151D+01 0.1169596D+01 0.3803890D+00
EXPONENTS  0.1307093D+03 0.2380887D+02 0.6443608D+01 0.5033151D+01 0.1169596D+01
EXPONENTS  0.3803890D+00 0.5033151D+01 0.1169596D+01 0.3803890D+00 0.5033151D+01
EXPONENTS  0.1169596D+01 0.3803890D+00 0.5033151D+01 0.1169596D+01 0.3803890D+00
EXPONENTS  0.1307093D+03 0.2380887D+02 0.6443608D+01 0.5033151D+01 0.1169596D+01
EXPONENTS  0.3803890D+00 0.5033151D+01 0.1169596D+01 0.3803890D+00 0.5033151D+01
EXPONENTS  0.1169596D+01 0.3803890D+00 0.5033151D+01 0.1169596D+01 0.3803890D+00
EXPONENTS  0.9910617D+02 0.1805231D+02 0.4885660D+01 0.3780456D+01 0.8784966D+00
EXPONENTS  0.2857144D+00 0.3780456D+01 0.8784966D+00 0.2857144D+00 0.3780456D+01
EXPONENTS  0.8784966D+00 0.2857144D+00 0.3780456D+01 0.8784966D+00 0.2857144D+00
EXPONENTS  0.9910617D+02 0.1805231D+02 0.4885660D+01 0.3780456D+01 0.8784966D+00
EXPONENTS  0.2857144D+00 0.3780456D+01 0.8784966D+00 0.2857144D+00 0.3780456D+01
EXPONENTS  0.8784966D+00 0.2857144D+00 0.3780456D+01 0.8784966D+00 0.2857144D+00
EXPONENTS  0.7161684D+02 0.1304510D+02 0.3530512D+01 0.2941249D+01 0.6834831D+00
EXPONENTS  0.2222899D+00 0.2941249D+01 0.6834831D+00 0.2222899D+00 0.2941249D+01
EXPONENTS  0.6834831D+00 0.2222899D+00 0.2941249D+01 0.6834831D+00 0.2222899D+00
EXPONENTS  0.7161684D+02 0.1304510D+02 0.3530512D+01 0.2941249D+01 0.6834831D+00
EXPONENTS  0.2222899D+00 0.2941249D+01 0.6834831D+00 0.2222899D+00 0.2941249D+01
EXPONENTS  0.6834831D+00 0.2222899D+00 0.2941249D+01 0.6834831D+00 0.2222899D+00
EXPONENTS  0.7161684D+02 0.1304510D+02 0.3530512D+01 0.2941249D+01 0.6834831D+00
EXPONENTS  0.2222899D+00 0.2941249D+01 0.6834831D+00 0.2222899D+00 0.2941249D+01
EXPONENTS  0.6834831D+00 0.2222899D+00 0.2941249D+01 0.6834831D+00 0.2222899D+00
EXPONENTS  0.7161684D+02 0.1304510D+02 0.3530512D+01 0.2941249D+01 0.6834831D+00
EXPONENTS  0.2222899D+00 0.2941249D+01 0.6834831D+00 0.2222899D+00 0.2941249D+01
EXPONENTS  0.6834831D+00 0.2222899D+00 0.2941249D+01 0.6834831D+00 0.2222899D+00
EXPONENTS  0.7161684D+02 0.1304510D+02 0.3530512D+01 0.2941249D+01 0.6834831D+00
EXPONENTS  0.2222899D+00 0.2941249D+01 0.6834831D+00 0.2222899D+00 0.2941249D+01
EXPONENTS  0.6834831D+00 0.2222899D+00 0.2941249D+01 0.6834831D+00 0.2222899D+00
EXPONENTS  0.3425251D+01 0.6239137D+00 0.1688554D+00 0.3425251D+01 0.6239137D+00
EXPONENTS  0.1688554D+00 0.3425251D+01 0.6239137D+00 0.1688554D+00 0.3425251D+01
EXPONENTS  0.6239137D+00 0.1688554D+00 0.3425251D+01 0.6239137D+00 0.1688554D+00
EXPONENTS  0.3425251D+01 0.6239137D+00 0.1688554D+00 0.3425251D+01 0.6239137D+00
EXPONENTS  0.1688554D+00 0.3425251D+01 0.6239137D+00 0.1688554D+00 0.3425251D+01
EXPONENTS  0.6239137D+00 0.1688554D+00 0.3425251D+01 0.6239137D+00 0.1688554D+00
MO    1     MO 0.0        OCC NO =    2.0000005  ORB. ENERGY =    0.000000
  0.10772868D+00  0.10419049D+00  0.32471625D-01  0.21751685D-03 -0.29094636D-03
 -0.21958155D-03 -0.21219214D-03 -0.13343211D-03 -0.21137888D-04 -0.51207673D-03
 -0.32200759D-03 -0.51011412D-04  0.59244489D-03  0.37254524D-03  0.59017425D-04
  0.16805127D+01  0.16253187D+01  0.50654085D+00  0.11241699D-03 -0.15036680D-03
 -0.11348407D-03  0.29082915D-02  0.18288118D-02  0.28971451D-03 -0.26358201D-02
 -0.16574744D-02 -0.26257179D-03 -0.83459176D-02 -0.52481369D-02 -0.83139307D-03
 -0.18348183D+00 -0.17745564D+00 -0.55305171D-01 -0.93968050D-05  0.12568986D-04
  0.94860011D-05  0.32442779D-03  0.20400890D-03  0.32318437D-04 -0.47891991D-03
 -0.30115769D-03 -0.47708438D-04 -0.81400051D-03 -0.51186536D-03 -0.81088073D-04
  0.30104017D+01  0.29115295D+01  0.90739658D+00 -0.24580998D-02  0.32879071D-02
  0.24814325D-02 -0.16473242D-01 -0.10358816D-01 -0.16410106D-02 -0.11738487D-01
 -0.73814758D-02 -0.11693498D-02  0.73972966D-02  0.46516186D-02  0.73689454D-03
 -0.42404751D-02 -0.41012029D-02 -0.12781658D-02 -0.17440581D-04  0.23328186D-04
  0.17606130D-04 -0.53285971D-04 -0.33507648D-04 -0.53081744D-05 -0.39967052D-04
 -0.25132355D-04 -0.39813872D-05 -0.57813458D-04 -0.36354654D-04 -0.57591880D-05
 -0.48647685D-02 -0.47049923D-02 -0.14663406D-02 -0.74956856D-04  0.10026085D-03
  0.75668359D-04 -0.61022799D-03 -0.38372773D-03 -0.60788920D-04  0.12931408D-03
  0.81316164D-04  0.12881847D-04 -0.70987466D-04 -0.44638824D-04 -0.70715396D-05
  0.37288425D-01  0.36063742D-01  0.11239493D-01  0.90230470D-03 -0.12069054D-02
 -0.91086953D-03 -0.26419650D-03 -0.16613385D-03 -0.26318393D-04 -0.20748107D-02
 -0.13046967D-02 -0.20668587D-03 -0.97701217D-03 -0.61437147D-03 -0.97326763D-04
  0.63978194D-01  0.61876923D-01  0.19284334D-01 -0.23262349D-03  0.31115271D-03
  0.23483159D-03  0.28390781D-03  0.17852885D-03  0.28281970D-04 -0.22575392D-04
 -0.14196012D-04 -0.22488868D-05  0.13457396D-03  0.84623717D-04  0.13405819D-04
  0.74158570D+00  0.71722940D+00  0.22352908D+00 -0.12286794D-02  0.16434579D-02
  0.12403422D-02 -0.16356495D-03 -0.10285403D-03 -0.16293807D-04 -0.29098056D-03
 -0.18297638D-03 -0.28986533D-04 -0.22002778D-04 -0.13835937D-04 -0.21918449D-05
 -0.79213485D-01 -0.76611834D-01 -0.23876562D-01  0.14323329D-03 -0.19158610D-03
 -0.14459289D-03  0.13157440D-04  0.82737513D-05  0.13107012D-05  0.13674577D-04
  0.85989408D-05  0.13622167D-05 -0.12510732D-03 -0.78670839D-04 -0.12462783D-04
 -0.10297530D-03 -0.99593226D-04 -0.31038858D-04 -0.93798429D-04 -0.90717757D-04
 -0.28272762D-04  0.57998871D-04  0.56093983D-04  0.17482044D-04 -0.29097714D-03
 -0.28142042D-03 -0.87706454D-04 -0.11923326D-03 -0.11531721D-03 -0.35939339D-04
 -0.16544851D-02 -0.16001460D-02 -0.49869560D-03 -0.14825469D-02 -0.14338548D-02
 -0.44686993D-03 -0.19944358D-05 -0.19289314D-05 -0.60116368D-06  0.29784330D-04
  0.28806107D-04  0.89776055D-05 -0.39749755D-03 -0.38444232D-03 -0.11981388D-03
MO    2     MO 0.0        OCC NO =    2.0000005  ORB. ENERGY =    0.000000
  0.17808953D-02  0.17224044D-02  0.53679821D-03  0.80071245D-05 -0.10710176D-04
 -0.80831295D-05  0.25278387D-04  0.15895728D-04  0.25181504D-05 -0.44219343D-04
 -0.27806309D-04 -0.44049866D-05  0.17676573D-04  0.11115504D-04  0.17608825D-05
  0.76753919D-01  0.74233049D-01  0.23135199D-01 -0.51779134D-05  0.69258775D-05
  0.52270631D-05  0.13106039D-03  0.82414288D-04  0.13055808D-04 -0.14311453D-03
 -0.89994257D-04 -0.14256602D-04 -0.33659910D-03 -0.21166254D-03 -0.33530903D-04
  0.37787594D+01  0.36546516D+01  0.11389953D+01 -0.12580012D-03  0.16826782D-03
  0.12699423D-03 -0.72620438D-02 -0.45665680D-02 -0.72342109D-03  0.87846824D-02
  0.55240441D-02  0.87510139D-03  0.16986300D-01  0.10681441D-01  0.16921197D-02
  0.16260726D+00  0.15726666D+00  0.49013149D-01 -0.14445622D-03  0.19322186D-03
  0.14582742D-03 -0.84087756D-03 -0.52876637D-03 -0.83765477D-04 -0.62777232D-03
 -0.39476008D-03 -0.62536629D-04  0.35354699D-03  0.22231984D-03  0.35219197D-04
 -0.81723029D-01 -0.79038956D-01 -0.24632990D-01  0.50785914D-03 -0.67930263D-03
 -0.51267983D-03  0.15671128D-02  0.98544256D-03  0.15611066D-03 -0.58478446D-03
 -0.36772816D-03 -0.58254318D-04  0.24526735D-02  0.15423069D-02  0.24432732D-03
  0.14072794D-01  0.13610593D-01  0.42418275D-02 -0.62604281D-04  0.83738283D-04
  0.63198531D-04 -0.20379204D-03 -0.12814990D-03 -0.20301097D-04 -0.17217707D-04
 -0.10826956D-04 -0.17151718D-05 -0.19142414D-03 -0.12037264D-03 -0.19069048D-04
 -0.18934401D-02 -0.18312528D-02 -0.57072152D-03  0.87799428D-04 -0.11743883D-03
 -0.88632835D-04 -0.19268627D-03 -0.12116630D-03 -0.19194777D-04 -0.75936638D-04
 -0.47750996D-04 -0.75645600D-05 -0.56845560D-04 -0.35746014D-04 -0.56627692D-05
 -0.11719828D-01 -0.11334908D-01 -0.35325956D-02  0.58728663D-03 -0.78554331D-03
 -0.59286126D-03 -0.28307511D-02 -0.17800523D-02 -0.28199019D-03  0.75068260D-03
  0.47204936D-03  0.74780550D-04  0.14938323D-03  0.93936182D-04  0.14881069D-04
  0.33774598D-01  0.32665321D-01  0.10180354D-01 -0.61484215D-04  0.82240104D-04
  0.62067833D-04 -0.38919408D-05 -0.24473568D-05 -0.38770243D-06 -0.41559609D-05
 -0.26133798D-05 -0.41400326D-06 -0.13455479D-04 -0.84611662D-05 -0.13403909D-05
  0.12198486D+01  0.11797844D+01  0.36768728D+00 -0.19573565D-02  0.26181225D-02
  0.19759361D-02 -0.36357069D-03 -0.22862300D-03 -0.36217725D-04  0.79406260D-03
  0.49932787D-03  0.79101924D-04  0.28095737D-02  0.17667353D-02  0.27988056D-03
 -0.47039497D-04 -0.45494554D-04 -0.14178665D-04 -0.47434873D-04 -0.45876944D-04
 -0.14297840D-04  0.18590454D-04  0.17979878D-04  0.56035427D-05  0.99056601D-04
  0.95803232D-04  0.29857683D-04  0.87212817D-04  0.84348440D-04  0.26287724D-04
 -0.88122784D-04 -0.85228520D-04 -0.26562007D-04 -0.79672708D-04 -0.77055975D-04
 -0.24014982D-04  0.13599617D-03  0.13152958D-03  0.40992024D-04 -0.21782367D-03
 -0.21066957D-03 -0.65656503D-04 -0.15526833D-04 -0.15016877D-04 -0.46801047D-05
MO    3     MO 0.0        OCC NO =    2.0000005  ORB. ENERGY =    0.000000
  0.17667019D+00  0.17086772D+00  0.53252005D-01  0.24511744D-03 -0.32786438D-03
 -0.24744414D-03 -0.89673896D-03 -0.56389352D-03 -0.89330208D-04 -0.19986823D-02
 -0.12568251D-02 -0.19910221D-03  0.49397604D-03  0.31062539D-03  0.49208280D-04
  0.33227090D+01  0.32135795D+01  0.10015324D+01 -0.25932751D-03  0.34687149D-03
  0.26178909D-03  0.49870605D-02  0.31359975D-02  0.49679469D-03 -0.55065603D-02
 -0.34626729D-02 -0.54854556D-03 -0.16087730D-01 -0.10116396D-01 -0.16026072D-02
  0.90026507D-02  0.87069718D-02  0.27135828D-02 -0.32621960D-05  0.43634507D-05
  0.32931613D-05  0.20621178D-04  0.12967150D-04  0.20542144D-05  0.33032197D-04
  0.20771532D-04  0.32905596D-05  0.20193802D-04  0.12698405D-04  0.20116407D-05
 -0.16513992D+01 -0.15971614D+01 -0.49776546D+00  0.14193045D-02 -0.18984344D-02
 -0.14327768D-02  0.82519099D-02  0.51890224D-02  0.82202832D-03  0.60863000D-02
  0.38272288D-02  0.60629734D-03 -0.31021775D-02 -0.19507324D-02 -0.30902879D-03
  0.36971271D-02  0.35757004D-02  0.11143896D-02 -0.37433578D-05  0.50070435D-05
  0.37788904D-05 -0.77063728D-05 -0.48459740D-05 -0.76768370D-06  0.26345693D-04
  0.16566879D-04  0.26244719D-05 -0.17797856D-04 -0.11191769D-04 -0.17729643D-05
  0.11041487D-01  0.10678845D-01  0.33281297D-02 -0.21639313D-04  0.28944330D-04
  0.21844717D-04  0.41792789D-04  0.26280427D-04  0.41632612D-05 -0.88956708D-04
 -0.55938365D-04 -0.88615769D-05  0.32883835D-04  0.20678238D-04  0.32757803D-05
 -0.28307388D-01 -0.27377673D-01 -0.85324250D-02  0.20137182D-03 -0.26935108D-03
 -0.20328328D-03  0.16474173D-02  0.10359402D-02  0.16411033D-03  0.33975879D-02
  0.21364945D-02  0.33845662D-03 -0.16544593D-02 -0.10403684D-02 -0.16481184D-03
 -0.28767280D-01 -0.27822461D-01 -0.86710459D-02  0.68868838D-04 -0.92117635D-04
 -0.69522553D-04 -0.98126527D-04 -0.61704594D-04 -0.97750443D-05 -0.58499193D-04
 -0.36785862D-04 -0.58274986D-05 -0.56255245D-04 -0.35374808D-04 -0.56039638D-05
  0.10635429D+01  0.10286124D+01  0.32057356D+00 -0.16586297D-02  0.22185512D-02
  0.16743737D-02  0.56538297D-03  0.35552798D-03  0.56321605D-04 -0.14431391D-02
 -0.90748458D-03 -0.14376080D-03 -0.21186215D-02 -0.13322461D-02 -0.21105016D-03
  0.92396838D-02  0.89362199D-02  0.27850294D-02 -0.22929789D-04  0.30670445D-04
  0.23147442D-04 -0.13291177D-04 -0.83578485D-05 -0.13240236D-05 -0.21987654D-04
 -0.13826427D-04 -0.21903383D-05  0.39279405D-05  0.24699944D-05  0.39128861D-06
  0.47208383D-04  0.45657893D-04  0.14229571D-04 -0.98180379D-04 -0.94955788D-04
 -0.29593571D-04  0.86841294D-04  0.83989119D-04  0.26175740D-04  0.14751336D-03
  0.14266850D-03  0.44463539D-04 -0.63853978D-04 -0.61756787D-04 -0.19246893D-04
  0.55096416D-03  0.53286855D-03  0.16607185D-03  0.81623972D-03  0.78943152D-03
  0.24603132D-03 -0.25540436D-05 -0.24701598D-05 -0.76984091D-06 -0.81140640D-05
 -0.78475694D-05 -0.24457446D-05 -0.38476734D-03 -0.37213022D-03 -0.11597674D-03
MO    4     MO 0.0        OCC NO =    2.0000003  ORB. ENERGY =    0.000000
  0.41898540D+01  0.40522444D+01  0.12629076D+01 -0.59023985D-03  0.78949348D-03
  0.59584251D-03 -0.49310216D-02 -0.31007587D-02 -0.49121227D-03  0.95426319D-02
  0.60006630D-02  0.95060583D-03  0.19039820D-01  0.11972750D-01  0.18966847D-02
 -0.50767493D+00 -0.49100109D+00 -0.15302359D+00 -0.17811565D-04  0.23824407D-04
  0.17980635D-04 -0.81930599D-03 -0.51520159D-03 -0.81616588D-04  0.90773894D-03
  0.57081061D-03  0.90425990D-04  0.26105055D-02  0.16415559D-02  0.26005004D-03
  0.42097732D-02  0.40715093D-02  0.12689116D-02 -0.16423157D-05  0.21967300D-05
  0.16579049D-05  0.68226733D-06  0.42902801D-06  0.67965245D-07  0.36433547D-05
  0.22910392D-05  0.36293910D-06  0.19792091D-04  0.12445798D-04  0.19716235D-05
 -0.39711231D-01 -0.38406974D-01 -0.11969776D-01  0.57692553D-04 -0.77168450D-04
 -0.58240180D-04  0.13849253D-03  0.87087817D-04  0.13796173D-04  0.10822686D-03
  0.68055952D-04  0.10781206D-04 -0.58034140D-04 -0.36493425D-04 -0.57811716D-05
 -0.87620695D-03 -0.84742922D-03 -0.26410667D-03  0.10489078D-05 -0.14029989D-05
 -0.10588642D-05  0.12646931D-05  0.79527298D-06  0.12598460D-06 -0.54896728D-05
 -0.34520536D-05 -0.54686328D-06  0.42551358D-05  0.26757436D-05  0.42388274D-06
  0.50149416D-01  0.48502332D-01  0.15116058D-01 -0.16441158D-03  0.21991377D-03
  0.16597220D-03 -0.12389673D-04 -0.77909586D-05 -0.12342187D-05 -0.47604912D-04
 -0.29935246D-04 -0.47422459D-05  0.18307372D-04  0.11512167D-04  0.18237207D-05
 -0.11181320D-01 -0.10814086D-01 -0.33702784D-02  0.12666123D-03 -0.16941963D-03
 -0.12786352D-03  0.15882923D-03  0.99876084D-04  0.15822050D-04  0.17244709D-03
  0.10843936D-03  0.17178616D-04 -0.55766497D-03 -0.35067470D-03 -0.55552764D-04
  0.83843135D-03  0.81089430D-03  0.25272033D-03  0.16313036D-04 -0.21820004D-04
 -0.16467882D-04  0.53668546D-04  0.33748222D-04  0.53462854D-05  0.43079504D-05
  0.27089548D-05  0.42914396D-06  0.48415821D-04  0.30445168D-04  0.48230260D-05
  0.31608962D+00  0.30570811D+00  0.95275866D-01 -0.27453009D-03  0.36720617D-03
  0.27713598D-03 -0.42589030D-03 -0.26781125D-03 -0.42425801D-04  0.33314725D-02
  0.20949193D-02  0.33187042D-03  0.33818663D-02  0.21266083D-02  0.33689048D-03
 -0.10520151D-02 -0.10174632D-02 -0.31709884D-03  0.21082240D-05 -0.28199199D-05
 -0.21282356D-05 -0.44965784D-05 -0.28275691D-05 -0.44793446D-06  0.22699614D-05
  0.14274126D-05  0.22612614D-06  0.56474961D-05  0.35512971D-05  0.56258512D-06
 -0.16472586D-03 -0.15931568D-03 -0.49651740D-04 -0.58523823D-04 -0.56601693D-04
 -0.17640276D-04 -0.55075519D-04 -0.53266644D-04 -0.16600886D-04  0.45329956D-05
  0.43841160D-05  0.13663375D-05 -0.11768798D-04 -0.11382269D-04 -0.35473562D-05
  0.51556070D-04  0.49862786D-04  0.15540052D-04  0.19517158D-04  0.18876145D-04
  0.58828699D-05  0.33546026D-06  0.32444256D-06  0.10111458D-06  0.42678693D-06
  0.41276973D-06  0.12864230D-06 -0.14031774D-02 -0.13570921D-02 -0.42294634D-03
MO    5     MO 0.0        OCC NO =    2.0000002  ORB. ENERGY =    0.000000
  0.12769684D-01  0.12350282D-01  0.38490436D-02 -0.33432219D-04  0.44718294D-04
  0.33749564D-04 -0.44104136D-04 -0.27733864D-04 -0.43935101D-05  0.15358468D-03
  0.96578166D-04  0.15299604D-04  0.53982507D-04  0.33945649D-04  0.53775611D-05
  0.52019883D-01  0.50311366D-01  0.15679855D-01 -0.15750278D-04  0.21067270D-04
  0.15899783D-04  0.65050420D-04  0.40905450D-04  0.64801105D-05 -0.53167173D-04
 -0.33432945D-04 -0.52963402D-05 -0.24256379D-03 -0.15253062D-03 -0.24163413D-04
  0.19103228D+01  0.18475811D+01  0.57581032D+00 -0.78410514D-03  0.10488040D-02
  0.79154800D-03 -0.31946669D-02 -0.20088923D-02 -0.31824229D-03  0.35357265D-02
  0.22233597D-02  0.35221754D-03  0.71277129D-02  0.44820971D-02  0.71003949D-03
 -0.30503868D-01 -0.29502013D-01 -0.91944889D-02  0.56698390D-04 -0.75838676D-04
 -0.57236580D-04  0.88818257D-04  0.55851303D-04  0.88477848D-05  0.13057438D-03
  0.82108677D-04  0.13007394D-04 -0.37274218D-04 -0.23439028D-04 -0.37131359D-05
  0.41003305D+00  0.39656612D+00  0.12359234D+00 -0.15396370D-02  0.20593889D-02
  0.15542515D-02 -0.17155587D-02 -0.10787893D-02 -0.17089836D-03  0.90852024D-03
  0.57130191D-03  0.90503821D-04 -0.49251685D-02 -0.30970781D-02 -0.49062921D-03
  0.98907655D-01  0.95659178D-01  0.29812787D-01 -0.54405784D-04  0.72772131D-04
  0.54922213D-04 -0.21916382D-03 -0.13781609D-03 -0.21832384D-04 -0.16330528D-03
 -0.10269074D-03 -0.16267939D-04 -0.52678323D-03 -0.33125543D-03 -0.52476426D-04
  0.34335526D-01  0.33207825D-01  0.10349429D-01 -0.12685552D-03  0.16967951D-03
  0.12805966D-03  0.89756509D-06  0.56441301D-06  0.89412504D-07 -0.41721469D-04
 -0.26235579D-04 -0.41561565D-05  0.14557924D-03  0.91544130D-04  0.14502128D-04
  0.42796120D+00  0.41390544D+00  0.12899625D+00 -0.20923345D-02  0.27986665D-02
  0.21121953D-02  0.42087167D-02  0.26465540D-02  0.41925862D-03 -0.14442862D-02
 -0.90820590D-03 -0.14387507D-03 -0.96953059D-03 -0.60966685D-03 -0.96581473D-04
 -0.69882634D-01 -0.67587441D-01 -0.21064053D-01  0.17932075D-03 -0.23985600D-03
 -0.18102290D-03  0.34964308D-04  0.21986495D-04  0.34830302D-05 -0.37097906D-04
 -0.23328159D-04 -0.36955723D-05 -0.96112129D-04 -0.60437886D-04 -0.95743765D-05
 -0.23323895D+01 -0.22557856D+01 -0.70302983D+00  0.59206788D-02 -0.79193862D-02
 -0.59768789D-02 -0.23448855D-02 -0.14745269D-02 -0.23358984D-03  0.25286568D-02
  0.15900873D-02  0.25189654D-03  0.27175038D-02  0.17088393D-02  0.27070886D-03
 -0.74485537D-04 -0.72039168D-04 -0.22451462D-04 -0.62977358D-04 -0.60908959D-04
 -0.18982662D-04 -0.48833558D-04 -0.47229691D-04 -0.14719432D-04 -0.34461528D-03
 -0.33329690D-03 -0.10387408D-03 -0.32189462D-03 -0.31132247D-03 -0.97025615D-04
  0.14686650D-04  0.14204289D-04  0.44268563D-05  0.18625477D-04  0.18013750D-04
  0.56140991D-05 -0.10304673D-03 -0.99662314D-04 -0.31060390D-04 -0.90890767D-04
 -0.87905593D-04 -0.27396334D-04  0.73880432D-05  0.71453938D-05  0.22269071D-05
MO    6     MO 0.0        OCC NO =    2.0000002  ORB. ENERGY =    0.000000
  0.67133146D+00  0.64928257D+00  0.20235302D+00 -0.12912009D-02  0.17270855D-02
  0.13034572D-02  0.81193318D-05  0.51056537D-05  0.80882133D-06  0.49247575D-02
  0.30968197D-02  0.49058826D-03  0.34197143D-02  0.21504081D-02  0.34066078D-03
  0.19582636D+01  0.18939473D+01  0.59026066D+00 -0.82791483D-03  0.11074030D-02
  0.83577354D-03  0.25338571D-02  0.15933573D-02  0.25241457D-03 -0.27264784D-02
 -0.17144828D-02 -0.27160288D-03 -0.80779608D-02 -0.50796385D-02 -0.80470008D-03
 -0.58146062D-01 -0.56236340D-01 -0.17526411D-01  0.25557033D-04 -0.34184596D-04
 -0.25799625D-04  0.12572263D-03  0.79057762D-04  0.12524078D-04 -0.11365110D-03
 -0.71466861D-04 -0.11321552D-04 -0.18920229D-03 -0.11897548D-03 -0.18847714D-04
  0.18924833D+00  0.18303274D+00  0.57043311D-01 -0.85586182D-04  0.11447843D-03
  0.86398581D-04 -0.47585036D-03 -0.29922747D-03 -0.47402659D-04  0.57365060D-03
  0.36072689D-03  0.57145200D-04  0.21587396D-03  0.13574734D-03  0.21504659D-04
 -0.19652005D-01 -0.19006563D-01 -0.59235156D-02  0.61128302D-04 -0.81764043D-04
 -0.61708543D-04  0.64841562D-04  0.40774114D-04  0.64593048D-05 -0.46265316D-04
 -0.29092872D-04 -0.46087998D-05  0.17378407D-03  0.10928009D-03  0.17311802D-04
  0.35085860D-01  0.33933517D-01  0.10575595D-01  0.71169009D-04 -0.95194300D-04
 -0.71844558D-04  0.64254183D-03  0.40404755D-03  0.64007920D-04 -0.22085025D-03
 -0.13887657D-03 -0.22000381D-04  0.40783177D-04  0.25645556D-04  0.40626869D-05
  0.45802093D+00  0.44297790D+00  0.13805686D+00 -0.21104205D-02  0.28228579D-02
  0.21304530D-02 -0.21820802D-02 -0.13721506D-02 -0.21737170D-03 -0.23791280D-02
 -0.14960595D-02 -0.23700096D-03  0.33621029D-02  0.21141805D-02  0.33492172D-03
 -0.18630397D-01 -0.18018509D-01 -0.56155823D-02  0.12959005D-03 -0.17333717D-03
 -0.13082015D-03 -0.10755885D-03 -0.67635890D-04 -0.10714661D-04  0.11056781D-03
  0.69528004D-04  0.11014404D-04  0.10052825D-04  0.63214862D-05  0.10014296D-05
 -0.22912461D+01 -0.22159934D+01 -0.69062837D+00  0.57153214D-02 -0.76447041D-02
 -0.57695723D-02  0.14967365D-02  0.94118808D-03  0.14910001D-03 -0.34173532D-03
 -0.21489234D-03 -0.34042557D-04 -0.40992426D-02 -0.25777138D-02 -0.40835317D-03
  0.69740424D-01  0.67449902D-01  0.21021188D-01 -0.18438411D-03  0.24662865D-03
  0.18613432D-03  0.52754459D-04  0.33173419D-04  0.52552269D-05 -0.50132361D-04
 -0.31524574D-04 -0.49940222D-05 -0.58839551D-04 -0.36999889D-04 -0.58614040D-05
 -0.29361058D-04 -0.28396737D-04 -0.88500225D-05  0.91424935D-04  0.88422217D-04
  0.27557343D-04 -0.38078061D-03 -0.36827443D-03 -0.11477505D-03  0.52536421D-05
  0.50810939D-05  0.15835550D-05  0.16835817D-03  0.16282869D-03  0.50746592D-04
 -0.14755911D-03 -0.14271275D-03 -0.44477329D-04 -0.89124208D-04 -0.86197054D-04
 -0.26863857D-04  0.67706097D-05  0.65482389D-05  0.20408000D-05  0.87313986D-05
  0.84446286D-05  0.26318219D-05  0.15165486D-03  0.14667398D-03  0.45711872D-04
MO    7     MO 0.0        OCC NO =    2.0000001  ORB. ENERGY =    0.000000
  0.43862126D-01  0.42421539D-01  0.13220941D-01 -0.61628643D-04  0.82433289D-04
  0.62213633D-04  0.55093797D-04  0.34644458D-04  0.54882642D-05  0.49082738D-04
  0.30864543D-04  0.48894621D-05  0.19312385D-03  0.12144146D-03  0.19238368D-04
  0.58473404D-01  0.56552930D-01  0.17625078D-01 -0.42789300D-04  0.57234145D-04
  0.43195463D-04 -0.52701434D-04 -0.33140076D-04 -0.52499448D-05 -0.25176761D-03
 -0.15831823D-03 -0.25080267D-04 -0.73589005D-04 -0.46274741D-04 -0.73306964D-05
 -0.81374774D-02 -0.78702138D-02 -0.24528019D-02 -0.39599004D-04  0.52966867D-04
  0.39974885D-04  0.33873591D-03  0.21300623D-03  0.33743766D-04 -0.11362605D-03
 -0.71451108D-04 -0.11319056D-04  0.14850958D-03  0.93386807D-04  0.14794039D-04
  0.46280638D-01  0.44760618D-01  0.13949930D-01 -0.18902366D-03  0.25283442D-03
  0.19081791D-03 -0.40285177D-04 -0.25332400D-04 -0.40130778D-05 -0.58447804D-03
 -0.36753547D-03 -0.58223794D-04 -0.57243821D-04 -0.35996451D-04 -0.57024425D-05
  0.30344839D+01  0.29348207D+01  0.91465544D+00 -0.55933538D-02  0.74815626D-02
  0.56464469D-02  0.10854675D-02  0.68257108D-03  0.10813073D-03  0.62658850D-02
  0.39401566D-02  0.62418700D-03 -0.57250994D-02 -0.36000961D-02 -0.57031571D-03
 -0.84635576D+00 -0.81855845D+00 -0.25510891D+00  0.18559736D-02 -0.24825147D-02
 -0.18735908D-02  0.11157325D-03  0.70160251D-04  0.11114563D-04  0.30183954D-03
  0.18980480D-03  0.30068269D-04  0.87021734D-03  0.54721602D-03  0.86688211D-04
 -0.35993950D+00 -0.34811782D+00 -0.10849312D+00  0.65618572D-03 -0.87770142D-03
 -0.66241435D-03  0.92343079D-03  0.58067806D-03  0.91989160D-04 -0.34070487D-03
 -0.21424437D-03 -0.33939907D-04 -0.75277603D-04 -0.47336577D-04 -0.74989091D-05
 -0.83343820D+00 -0.80606514D+00 -0.25121530D+00  0.20176769D-02 -0.26988059D-02
 -0.20368291D-02 -0.98537998D-03 -0.61963337D-03 -0.98160337D-04 -0.19929066D-03
 -0.12531931D-03 -0.19852685D-04 -0.55782585D-03 -0.35077587D-03 -0.55568790D-04
 -0.63045225D-01 -0.60974597D-01 -0.19003119D-01  0.40722950D-04 -0.54470236D-04
 -0.41109500D-04  0.27259897D-03  0.17141755D-03  0.27155420D-04  0.27738898D-03
  0.17442964D-03  0.27632585D-04 -0.44153154D-03 -0.27764688D-03 -0.43983931D-04
  0.13164635D+00  0.12732261D+00  0.39680898D-01  0.17081422D-03 -0.22847782D-03
 -0.17243562D-03 -0.24164317D-02 -0.15195171D-02 -0.24071703D-03  0.70281737D-03
  0.44195042D-03  0.70012372D-04 -0.30394988D-02 -0.19113184D-02 -0.30278494D-03
  0.69683388D-03  0.67394739D-03  0.21003997D-03  0.71138094D-03  0.68801668D-03
  0.21442475D-03  0.30724714D-03  0.29715606D-03  0.92610564D-04  0.66069228D-03
  0.63899281D-03  0.19914615D-03  0.72314541D-03  0.69939475D-03  0.21797080D-03
  0.85150771D-05  0.82354119D-05  0.25666182D-05 -0.41612378D-05 -0.40245680D-05
 -0.12542821D-05 -0.17867471D-02 -0.17280640D-02 -0.53856208D-03 -0.17228372D-02
 -0.16662532D-02 -0.51929833D-03 -0.50519575D-06 -0.48860334D-06 -0.15227632D-06
MO    8     MO 0.0        OCC NO =    2.0000001  ORB. ENERGY =    0.000000
 -0.80823958D-01 -0.78169413D-01 -0.24361992D-01  0.11329364D-03 -0.15153940D-03
 -0.11436905D-03 -0.77714976D-04 -0.48869262D-04 -0.77417122D-05 -0.85497200D-04
 -0.53762934D-04 -0.85169520D-05 -0.35164232D-03 -0.22112213D-03 -0.35029460D-04
 -0.10783917D+00 -0.10429735D+00 -0.32504929D-01  0.76878001D-04 -0.10283054D-03
 -0.77607740D-04  0.11300642D-03  0.71061471D-04  0.11257331D-04  0.50215603D-03
  0.31576919D-03  0.50023145D-04  0.13066796D-03  0.82167518D-04  0.13016715D-04
 -0.28909106D+00 -0.27959629D+00 -0.87137950D-01  0.14707533D-03 -0.19672514D-03
 -0.14847140D-03 -0.32795781D-03 -0.20622867D-03 -0.32670086D-04 -0.32482112D-03
 -0.20425624D-03 -0.32357620D-04 -0.92574023D-03 -0.58213030D-03 -0.92219219D-04
 -0.59342494D-01 -0.57393476D-01 -0.17887040D-01  0.32848921D-03 -0.43938086D-03
 -0.33160729D-03  0.23594444D-04  0.14836820D-04  0.23504015D-05  0.11577747D-02
  0.72803979D-03  0.11533373D-03  0.16085305D-03  0.10114871D-03  0.16023656D-04
  0.15446205D+01  0.14938897D+01  0.46558017D+00 -0.27615325D-02  0.36937728D-02
  0.27877454D-02  0.78597032D-03  0.49423923D-03  0.78295798D-04  0.31841820D-02
  0.20022991D-02  0.31719782D-03 -0.23790991D-02 -0.14960413D-02 -0.23699808D-03
  0.16644932D+01  0.16098253D+01  0.50171224D+00 -0.37133225D-02  0.49668688D-02
  0.37485700D-02 -0.19344610D-03 -0.12164410D-03 -0.19270469D-04 -0.50045884D-03
 -0.31470195D-03 -0.49854076D-04 -0.14090356D-02 -0.88603940D-03 -0.14036353D-03
  0.73724652D+00  0.71303274D+00  0.22222116D+00 -0.13366990D-02  0.17879429D-02
  0.13493872D-02 -0.19799277D-02 -0.12450317D-02 -0.19723394D-03  0.68958264D-03
  0.43362807D-03  0.68693971D-04  0.14167043D-03  0.89086166D-04  0.14112745D-04
  0.14784862D+01  0.14299275D+01  0.44564594D+00 -0.32512534D-02  0.43488141D-02
  0.32821148D-02  0.57784277D-03  0.36336304D-03  0.57562811D-04  0.51272125D-03
  0.32241288D-03  0.51075617D-04  0.18182186D-02  0.11433447D-02  0.18112500D-03
  0.12022164D+00  0.11627314D+00  0.36237259D-01 -0.63481874D-04  0.84912135D-04
  0.64084455D-04 -0.54148115D-03 -0.34049788D-03 -0.53940585D-04 -0.56041412D-03
 -0.35240344D-03 -0.55826625D-04  0.89300068D-03  0.56154279D-03  0.88957813D-04
  0.42285633D+00  0.40896824D+00  0.12745754D+00 -0.22245619D-03  0.29755312D-03
  0.22456778D-03  0.14157622D-02  0.89026924D-03  0.14103360D-03 -0.68539117D-03
 -0.43099236D-03 -0.68276431D-04 -0.23559609D-02 -0.14814914D-02 -0.23469313D-03
 -0.13872423D-02 -0.13416803D-02 -0.41814315D-03 -0.13757618D-02 -0.13305769D-02
 -0.41468271D-03 -0.59637389D-03 -0.57678686D-03 -0.17975927D-03 -0.12431570D-02
 -0.12023273D-02 -0.37471291D-03 -0.12311542D-02 -0.11907187D-02 -0.37109501D-03
 -0.34435882D-04 -0.33304886D-04 -0.10379678D-04 -0.20463960D-04 -0.19791851D-04
 -0.61682555D-05 -0.10026609D-02 -0.96973000D-03 -0.30222248D-03 -0.92498462D-03
 -0.89460485D-03 -0.27880926D-03 -0.16693026D-05 -0.16144768D-05 -0.50316191D-06
MO    9     MO 0.0        OCC NO =    2.0000001  ORB. ENERGY =    0.000000