 opt glycine pbe0
GAUSSIAN             30 MOL ORBITALS     90 PRIMITIVES       10 NUCLEI
  O    1    (CENTRE  1)   3.20443119 -1.28826404 -0.00567570  CHARGE =  8.0
  O    2    (CENTRE  2)   1.08196207  2.55124732  0.00341380  CHARGE =  8.0
  N    3    (CENTRE  3)  -3.79829873  0.03271813 -0.00570225  CHARGE =  7.0
  C    4    (CENTRE  4)  -1.40574527 -1.45986957  0.00859382  CHARGE =  6.0
  C    5    (CENTRE  5)   1.02058627  0.20758540  0.00211117  CHARGE =  6.0
  H    6    (CENTRE  6)  -1.36674580 -2.70040583 -1.65990027  CHARGE =  1.0
  H    7    (CENTRE  7)  -1.37303390 -2.67638820  1.69499387  CHARGE =  1.0
  H    8    (CENTRE  8)  -3.62820497  1.25646444 -1.55932957  CHARGE =  1.0
  H    9    (CENTRE  9)  -3.62877978  1.28381423  1.52609390  CHARGE =  1.0
  H   10    (CENTRE 10)   4.60466357  0.01732725 -0.00807686  CHARGE =  1.0
CENTRE ASSIGNMENTS    1  1  1  1  1  1  1  1  1  1  1  1  1  1  1  2  2  2  2  2
CENTRE ASSIGNMENTS    2  2  2  2  2  2  2  2  2  2  3  3  3  3  3  3  3  3  3  3
CENTRE ASSIGNMENTS    3  3  3  3  3  4  4  4  4  4  4  4  4  4  4  4  4  4  4  4
CENTRE ASSIGNMENTS    5  5  5  5  5  5  5  5  5  5  5  5  5  5  5  6  6  6  7  7
CENTRE ASSIGNMENTS    7  8  8  8  9  9  9 10 10 10
TYPE ASSIGNMENTS      1  1  1  1  1  1  2  2  2  3  3  3  4  4  4  1  1  1  1  1
TYPE ASSIGNMENTS      1  2  2  2  3  3  3  4  4  4  1  1  1  1  1  1  2  2  2  3
TYPE ASSIGNMENTS      3  3  4  4  4  1  1  1  1  1  1  2  2  2  3  3  3  4  4  4
TYPE ASSIGNMENTS      1  1  1  1  1  1  2  2  2  3  3  3  4  4  4  1  1  1  1  1
TYPE ASSIGNMENTS      1  1  1  1  1  1  1  1  1  1
EXPONENTS  0.1307093D+03 0.2380887D+02 0.6443608D+01 0.5033151D+01 0.1169596D+01
EXPONENTS  0.3803890D+00 0.5033151D+01 0.1169596D+01 0.3803890D+00 0.5033151D+01
EXPONENTS  0.1169596D+01 0.3803890D+00 0.5033151D+01 0.1169596D+01 0.3803890D+00
EXPONENTS  0.1307093D+03 0.2380887D+02 0.6443608D+01 0.5033151D+01 0.1169596D+01
EXPONENTS  0.3803890D+00 0.5033151D+01 0.1169596D+01 0.3803890D+00 0.5033151D+01
EXPONENTS  0.1169596D+01 0.3803890D+00 0.5033151D+01 0.1169596D+01 0.3803890D+00
EXPONENTS  0.9910617D+02 0.1805231D+02 0.4885660D+01 0.3780456D+01 0.8784966D+00
EXPONENTS  0.2857144D+00 0.3780456D+01 0.8784966D+00 0.2857144D+00 0.3780456D+01
EXPONENTS  0.8784966D+00 0.2857144D+00 0.3780456D+01 0.8784966D+00 0.2857144D+00
EXPONENTS  0.7161684D+02 0.1304510D+02 0.3530512D+01 0.2941249D+01 0.6834831D+00
EXPONENTS  0.2222899D+00 0.2941249D+01 0.6834831D+00 0.2222899D+00 0.2941249D+01
EXPONENTS  0.6834831D+00 0.2222899D+00 0.2941249D+01 0.6834831D+00 0.2222899D+00
EXPONENTS  0.7161684D+02 0.1304510D+02 0.3530512D+01 0.2941249D+01 0.6834831D+00
EXPONENTS  0.2222899D+00 0.2941249D+01 0.6834831D+00 0.2222899D+00 0.2941249D+01
EXPONENTS  0.6834831D+00 0.2222899D+00 0.2941249D+01 0.6834831D+00 0.2222899D+00
EXPONENTS  0.3425251D+01 0.6239137D+00 0.1688554D+00 0.3425251D+01 0.6239137D+00
EXPONENTS  0.1688554D+00 0.3425251D+01 0.6239137D+00 0.1688554D+00 0.3425251D+01
EXPONENTS  0.6239137D+00 0.1688554D+00 0.3425251D+01 0.6239137D+00 0.1688554D+00
MO    1     MO 0.0        OCC NO =    2.0000005  ORB. ENERGY =    0.000000
  0.14334941D+00  0.13864131D+00  0.43208441D-01  0.28992117D-03 -0.38779298D-03
 -0.29267315D-03  0.12323902D-02  0.77496003D-03  0.12276669D-03  0.35253914D-03
  0.22168607D-03  0.35118799D-04  0.36254566D-05  0.22797844D-05  0.36115616D-06
  0.24588206D+01  0.23780642D+01  0.74113875D+00  0.15860456D-03 -0.21214641D-03
 -0.16011006D-03 -0.64781498D-03 -0.40736344D-03 -0.64533214D-04 -0.13625332D-01
 -0.85679744D-02 -0.13573111D-02  0.40136219D-06  0.25238731D-06  0.39982391D-07
  0.24738074D+01  0.23925588D+01  0.74565608D+00 -0.20234473D-02  0.27065242D-02
  0.20426542D-02  0.14743283D-01  0.92709718D-02  0.14686777D-02  0.10517954D-01
  0.66139715D-02  0.10477642D-02 -0.87913664D-04 -0.55282471D-04 -0.87576723D-05
 -0.83938456D-01 -0.81181620D-01 -0.25300765D-01  0.12314063D-02 -0.16471054D-02
 -0.12430950D-02  0.79652111D-03  0.50087385D-03  0.79346833D-04 -0.15258247D-02
 -0.95947954D-03 -0.15199768D-03  0.12987478D-04  0.81668750D-05  0.12937702D-05
  0.10328165D+01  0.99889511D+00  0.31131198D+00 -0.16948918D-02  0.22670548D-02
  0.17109801D-02  0.52307182D-03  0.32892160D-03  0.52106707D-04 -0.69350735D-03
 -0.43609603D-03 -0.69084938D-04 -0.71902674D-05 -0.45214331D-05 -0.71627097D-06
  0.28949841D-03  0.27999026D-03  0.87260734D-04  0.29048719D-03  0.28094656D-03
  0.87558772D-04 -0.12457851D-02 -0.12048691D-02 -0.37550507D-03 -0.12479985D-02
 -0.12070098D-02 -0.37617225D-03 -0.50205297D-03 -0.48556377D-03 -0.15132902D-03
MO    2     MO 0.0        OCC NO =    2.0000005  ORB. ENERGY =    0.000000
  0.10537304D+00  0.10191222D+00  0.31761586D-01  0.14628397D-03 -0.19566662D-03
 -0.14767252D-03  0.20281958D-02  0.12753839D-02  0.20204224D-03 -0.36961834D-03
 -0.23242593D-03 -0.36820173D-04 -0.15660052D-04 -0.98474611D-05 -0.15600033D-05
  0.27963888D+01  0.27045455D+01  0.84288871D+00 -0.24211790D-03  0.32385225D-03
  0.24441612D-03 -0.25182133D-03 -0.15835201D-03 -0.25085619D-04 -0.14946577D-01
 -0.93988088D-02 -0.14889292D-02 -0.13744979D-04 -0.86432117D-05 -0.13692299D-05
 -0.23768874D+01 -0.22988221D+01 -0.71644243D+00  0.21774246D-02 -0.29124813D-02
 -0.21980931D-02 -0.13014267D-01 -0.81837202D-02 -0.12964388D-02 -0.87022184D-02
 -0.54721884D-02 -0.86688659D-03  0.75707256D-04  0.47606754D-04  0.75417097D-05
  0.75560692D-01  0.73079012D-01  0.22775536D-01 -0.33552245D-03  0.44878838D-03
  0.33870729D-03 -0.46316209D-02 -0.29124875D-02 -0.46138695D-03 -0.77920109D-03
 -0.48998255D-03 -0.77621469D-04  0.95906723D-06  0.60308721D-06  0.95539147D-07
  0.80304241D+00  0.77666766D+00  0.24205339D+00 -0.11858732D-02  0.15862012D-02
  0.11971297D-02  0.64860861D-03  0.40786250D-03  0.64612272D-04 -0.25559435D-02
 -0.16072458D-02 -0.25461474D-03  0.91184950D-06  0.57339543D-06  0.90835470D-07
 -0.11494373D-03 -0.11116857D-03 -0.34646387D-04 -0.11692256D-03 -0.11308241D-03
 -0.35242849D-04  0.11489703D-02  0.11112341D-02  0.34632313D-03  0.11473276D-02
  0.11096453D-02  0.34582796D-03 -0.24715381D-03 -0.23903640D-03 -0.74497206D-04
MO    3     MO 0.0        OCC NO =    2.0000003  ORB. ENERGY =    0.000000
  0.41941632D+01  0.40564121D+01  0.12642065D+01 -0.49040421D-03  0.65595525D-03
  0.49505921D-03 -0.21966798D-02 -0.13813312D-02 -0.21882607D-03  0.21866120D-01
  0.13750003D-01  0.21782315D-02  0.28754821D-04  0.18081803D-04  0.28644614D-05
 -0.47464310D+00 -0.45905414D+00 -0.14306713D+00 -0.40263410D-04  0.53855563D-04
  0.40645597D-04 -0.24617736D-04 -0.15480293D-04 -0.24523385D-05  0.27082102D-02
  0.17029953D-02  0.26978306D-03  0.10818886D-05  0.68032060D-06  0.10777421D-06
 -0.67884316D-01 -0.65654755D-01 -0.20461719D-01  0.85036081D-04 -0.11374263D-03
 -0.85843259D-04 -0.30407777D-03 -0.19121226D-03 -0.30291235D-04 -0.18421150D-03
 -0.11583713D-03 -0.18350548D-04  0.17921183D-05  0.11269321D-05  0.17852498D-06
 -0.91180611D-02 -0.88185918D-02 -0.27483699D-02  0.93421431D-04 -0.12495871D-03
 -0.94308204D-04 -0.41864938D-03 -0.26325796D-03 -0.41704484D-04 -0.52185722D-03
 -0.32815782D-03 -0.51985713D-04 -0.11043896D-05 -0.69446983D-06 -0.11001569D-06
  0.31707767D+00  0.30666371D+00  0.95573685D-01 -0.26897616D-03  0.35977734D-03
  0.27152933D-03 -0.20225290D-02 -0.12718205D-02 -0.20147773D-03  0.42530387D-02
  0.26744248D-02  0.42367383D-03  0.97818433D-05  0.61510856D-05  0.97443530D-06
 -0.32534497D-04 -0.31465949D-04 -0.98065619D-05 -0.29679404D-04 -0.28704627D-04
 -0.89459786D-05  0.38713903D-04  0.37442402D-04  0.11669161D-04  0.38926832D-04
  0.37648338D-04  0.11733342D-04 -0.14044660D-02 -0.13583383D-02 -0.42333473D-03
MO    4     MO 0.0        OCC NO =    2.0000002  ORB. ENERGY =    0.000000
 -0.66270080D+00 -0.64093536D+00 -0.19975156D+00  0.12691688D-02 -0.16976157D-02
 -0.12812159D-02  0.35924655D-02  0.22590387D-02  0.35786969D-03 -0.48039893D-02
 -0.30208774D-02 -0.47855773D-03 -0.18106492D-04 -0.11385848D-04 -0.18037096D-05
 -0.19725344D+01 -0.19077493D+01 -0.59456214D+00  0.79153169D-03 -0.10587376D-02
 -0.79904505D-03  0.17544312D-03  0.11032334D-03  0.17477071D-04  0.88900594D-02
  0.55903079D-02  0.88559869D-03  0.42877376D-05  0.26962445D-05  0.42713043D-06
 -0.28804148D+00 -0.27858118D+00 -0.86821586D-01  0.23209639D-03 -0.31044768D-03
 -0.23429949D-03 -0.25544330D-04 -0.16062960D-04 -0.25446428D-05 -0.81246911D-03
 -0.51090238D-03 -0.80935520D-04  0.79141671D-05  0.49766407D-05  0.78838349D-06
 -0.41532493D+00 -0.40168420D+00 -0.12518742D+00  0.20005422D-02 -0.26758868D-02
 -0.20195317D-02 -0.38107336D-02 -0.23962916D-02 -0.37961284D-03 -0.29628679D-02
 -0.18631308D-02 -0.29515123D-03  0.11418359D-04  0.71801707D-05  0.11374597D-05
  0.22912168D+01  0.22159651D+01  0.69061953D+00 -0.56831818D-02  0.76017148D-02
  0.57371276D-02  0.13423020D-02  0.84407551D-03  0.13371574D-03  0.42460003D-02
  0.26699989D-02  0.42297269D-03 -0.18432351D-05 -0.11590757D-05 -0.18361706D-06
  0.34166509D-03  0.33044360D-03  0.10298484D-03  0.34091296D-03  0.32971617D-03
  0.10275813D-03  0.15706389D-03  0.15190536D-03  0.47342265D-04  0.15835977D-03
  0.15315868D-03  0.47732870D-04 -0.15794352D-03 -0.15275609D-03 -0.47607402D-04
MO    5     MO 0.0        OCC NO =    2.0000000  ORB. ENERGY =    0.000000
 -0.87842438D-01 -0.84957382D-01 -0.26477505D-01  0.15829204D-03 -0.21172839D-03
 -0.15979458D-03  0.99776934D-04  0.62742413D-04  0.99394524D-05 -0.41868719D-03
 -0.26328174D-03 -0.41708251D-04  0.99797891D-06  0.62755592D-06  0.99415401D-07
 -0.31248405D+00 -0.30222097D+00 -0.94189076D-01  0.20318112D-03 -0.27177117D-03
 -0.20510975D-03 -0.15416571D-02 -0.96943532D-03 -0.15357484D-03  0.76726891D-03
  0.48247928D-03  0.76432824D-04  0.47931147D-05  0.30140391D-05  0.47747444D-06
  0.10312282D+00  0.99735901D-01  0.31083324D-01  0.64146090D-03 -0.85800577D-03
 -0.64754975D-03 -0.33052269D-02 -0.20784154D-02 -0.32925591D-03  0.19910488D-02
  0.12520249D-02  0.19834179D-03 -0.19327715D-04 -0.12153786D-04 -0.19253639D-05
  0.26464333D+01  0.25595151D+01  0.79768905D+00 -0.67148873D-02  0.89817042D-02
  0.67786261D-02 -0.20173100D-03 -0.12685386D-03 -0.20095783D-04 -0.43328668D-03
 -0.27246229D-03 -0.43162604D-04  0.66827774D-05  0.42023097D-05  0.66571647D-06
  0.37388298D+00  0.36160334D+00  0.11269597D+00 -0.10166085D-03  0.13597960D-03
  0.10262583D-03  0.30557608D-02  0.19215444D-02  0.30440492D-03  0.27479975D-02
  0.17280145D-02  0.27374654D-03 -0.67554034D-05 -0.42479789D-05 -0.67295123D-06
 -0.21960321D-02 -0.21239067D-02 -0.66192894D-03 -0.21952743D-02 -0.21231737D-02
 -0.66170050D-03 -0.29421079D-03 -0.28454787D-03 -0.88681143D-04 -0.29428937D-03
 -0.28462387D-03 -0.88704828D-04 -0.82329021D-04 -0.79625045D-04 -0.24815649D-04
MO    6     MO 0.0        OCC NO =    1.9995873  ORB. ENERGY =    0.000000
  0.77346524D+00  0.74806191D+00  0.23313822D+00  0.18787036D+00 -0.25129178D+00
 -0.18965366D+00 -0.31892223D-01 -0.20054686D-01 -0.31769992D-02  0.33440431D+00
  0.21028240D+00  0.33312266D-01  0.42773649D-03  0.26897218D-03  0.42609713D-04
 -0.59667169D+00 -0.57707488D+00 -0.17984904D+00 -0.14127134D+00  0.18896183D+00
  0.14261232D+00 -0.54606072D-01 -0.34337764D-01 -0.54396787D-02  0.16162956D+00
  0.10163700D+00  0.16101009D-01  0.23211883D-03  0.14596255D-03  0.23122920D-04
  0.31259973D-03  0.30233285D-03  0.94223943D-04  0.50305213D-03 -0.67287286D-03
 -0.50782718D-03  0.49184301D-02  0.30928409D-02  0.48995795D-03  0.10250630D-02
  0.64458715D-03  0.10211343D-03  0.50523220D-05  0.31770356D-05  0.50329582D-06
  0.61779382D-02  0.59750329D-02  0.18621568D-02 -0.17242039D-03  0.23062619D-03
  0.17405703D-03  0.19869456D-02  0.12494447D-02  0.19793304D-03  0.69867699D-02
  0.43934684D-02  0.69599921D-03 -0.19682673D-04 -0.12376993D-04 -0.19607237D-05
 -0.27248506D-01 -0.26353569D-01 -0.82132564D-02 -0.12636521D-02  0.16902367D-02
  0.12756469D-02 -0.77164151D-03 -0.48522889D-03 -0.76868408D-04  0.51906980D-01
  0.32640502D-01  0.51708039D-02  0.42928936D-04  0.26994867D-04  0.42764405D-05
 -0.19686251D-02 -0.19039685D-02 -0.59338381D-03 -0.19021934D-02 -0.18397187D-02
 -0.57335996D-03  0.75424893D-03  0.72947673D-03  0.22734603D-03  0.79622124D-03
  0.77007052D-03  0.23999735D-03  0.21278119D-02  0.20579270D-02  0.64136597D-03
MO    7     MO 0.0        OCC NO =    1.9995581  ORB. ENERGY =    0.000000
  0.58932017D+00  0.56996481D+00  0.17763314D+00  0.13926328D+00 -0.18627588D+00
 -0.14058519D+00 -0.37805769D-02 -0.23773282D-02 -0.37660873D-03  0.19518460D+00
  0.12273731D+00  0.19443653D-01  0.21015100D-03  0.13214859D-03  0.20934557D-04
  0.79224870D+00  0.76622845D+00  0.23879994D+00  0.18970090D+00 -0.25374028D+00
 -0.19150157D+00 -0.53641097D-01 -0.33730961D-01 -0.53435509D-02 -0.16505225D+00
 -0.10378928D+00 -0.16441966D-01  0.84063938D-04  0.52861660D-04  0.83741750D-05
  0.20243304D-01  0.19578442D-01  0.61017452D-02  0.57319121D-02 -0.76668955D-02
 -0.57863204D-02  0.13243331D-01  0.83277620D-02  0.13192574D-02  0.16323444D-01
  0.10264620D-01  0.16260882D-02 -0.15814424D-03 -0.99445343D-04 -0.15753813D-04
  0.24313451D-01  0.23514911D-01  0.73285706D-02  0.38393221D-02 -0.51354034D-02
 -0.38757656D-02 -0.24341626D-01 -0.15306667D-01 -0.24248333D-02 -0.12745611D-01
 -0.80147822D-02 -0.12696762D-02  0.72369772D-04  0.45508055D-04  0.72092404D-05
  0.15052719D+00  0.14558334D+00  0.45371968D-01  0.90070626D-02 -0.12047674D-01
 -0.90925592D-02  0.63927140D-02  0.40199101D-02  0.63682130D-03  0.10768230D-01
  0.67713522D-02  0.10726959D-02  0.10374377D-05  0.65236864D-06  0.10334615D-06
  0.18086570D-02  0.17492543D-02  0.54516617D-03  0.18263737D-02  0.17663891D-02
  0.55050634D-03  0.49398712D-03  0.47776284D-03  0.14889781D-03  0.46502794D-03
  0.44975478D-03  0.14016892D-03 -0.54457517D-02 -0.52668939D-02 -0.16414608D-02
MO    8     MO 0.0        OCC NO =    1.9991835  ORB. ENERGY =    0.000000
 -0.33211908D-01 -0.32121112D-01 -0.10010748D-01 -0.94788794D-02  0.12678767D-01
  0.95688545D-02 -0.29188182D-01 -0.18354312D-01 -0.29076314D-02 -0.58857646D-02
 -0.37011267D-02 -0.58632065D-03  0.60018481D-03  0.37741232D-03  0.59788452D-04
 -0.24225973D-01 -0.23430307D-01 -0.73022032D-02 -0.44550885D-02  0.59590407D-02
  0.44973769D-02 -0.55271066D-03 -0.34755929D-03 -0.55059232D-04  0.11753086D-02
  0.73906560D-03  0.11708041D-03  0.26639612D-03  0.16751703D-03  0.26537512D-04
  0.71480751D+00  0.69133070D+00  0.21545758D+00  0.16884832D+00 -0.22584826D+00
 -0.17045105D+00  0.41725935D+00  0.26238388D+00  0.41566014D-01  0.30901616D+00
  0.19431765D+00  0.30783181D-01 -0.26789331D-02 -0.16845850D-02 -0.26686657D-03
  0.10519072D+00  0.10173589D+00  0.31706632D-01  0.10572866D-01 -0.14142063D-01
 -0.10673226D-01  0.56921501D-01  0.35793768D-01  0.56703341D-02  0.53707083D-01
  0.33772455D-01  0.53501242D-02 -0.32512483D-03 -0.20444722D-03 -0.32387874D-04
  0.58119337D-02  0.56210492D-02  0.17518355D-02  0.47287829D-02 -0.63251292D-02
 -0.47736693D-02  0.11595703D-01  0.72916895D-02  0.11551261D-02  0.25876558D-01
  0.16271874D-01  0.25777383D-02 -0.12901787D-03 -0.81129896D-04 -0.12852339D-04
 -0.18088306D-02 -0.17494222D-02 -0.54521849D-03 -0.17315580D-02 -0.16746875D-02
 -0.52192695D-03 -0.33480225D-02 -0.32380616D-02 -0.10091624D-02 -0.33727813D-02
 -0.32620072D-02 -0.10166252D-02 -0.50177409D-02 -0.48529405D-02 -0.15124496D-02
MO    9     MO 0.0        OCC NO =    1.9983304  ORB. ENERGY =    0.000000
  0.61115219D-01  0.59107979D-01  0.18421375D-01  0.15462907D-01 -0.20682887D-01
 -0.15609683D-01 -0.92672625D-01 -0.58275034D-01 -0.92317444D-02  0.43578338D-01
  0.27403229D-01  0.43411318D-02  0.25246976D-03  0.15875976D-03  0.25150213D-04
  0.51447857D-01  0.49758128D-01  0.15507435D-01  0.17615509D-01 -0.23562166D-01
 -0.17782718D-01 -0.21460049D+00 -0.13494655D+00 -0.21377800D-01 -0.11616711D+00
 -0.73048999D-01 -0.11572189D-01  0.58934133D-03  0.37059364D-03  0.58708259D-04
  0.14630200D-01  0.14149693D-01  0.44098411D-02  0.22133861D-01 -0.29605827D-01
 -0.22343959D-01  0.30770188D+00  0.19349120D+00  0.30652257D-01  0.17113381D+00
  0.10761353D+00  0.17047792D-01 -0.13617419D-02 -0.85629986D-03 -0.13565228D-03
 -0.54246862D+00 -0.52465203D+00 -0.16351112D+00 -0.89647661D-01  0.11991099D+00
  0.90498612D-01  0.60805759D-01  0.38236293D-01  0.60572712D-02 -0.49325105D-01
 -0.31016950D-01 -0.49136059D-02  0.34511632D-03  0.21701841D-03  0.34379362D-04
 -0.20637567D+00 -0.19959756D+00 -0.62205841D-01 -0.31755089D-01  0.42474997D-01
  0.32056514D-01 -0.10100512D+00 -0.63514728D-01 -0.10061800D-01 -0.36984691D-01
 -0.23256966D-01 -0.36842942D-02  0.23645666D-03  0.14869029D-03  0.23555041D-04
  0.56287936D-01  0.54439241D-01  0.16966334D-01  0.56254566D-01  0.54406967D-01
  0.16956275D-01  0.14981832D-01  0.14489775D-01  0.45158301D-02  0.15026669D-01
  0.14533140D-01  0.45293450D-02 -0.86015654D-02 -0.83190596D-02 -0.25926875D-02
MO   10     MO 0.0        OCC NO =    1.9977003  ORB. ENERGY =    0.000000
 -0.40566714D-01 -0.39234359D-01 -0.12227636D-01 -0.17581046D-01  0.23516069D-01
  0.17747928D-01 -0.59430654D-02 -0.37371590D-02 -0.59202878D-03 -0.13897607D+00
 -0.87391881D-01 -0.13844342D-01 -0.44077957D-05 -0.27717402D-05 -0.43909022D-06
  0.11016047D-01  0.10654241D-01  0.33204615D-02  0.31212676D-02 -0.41749476D-02
 -0.31508952D-02 -0.28994444D+00 -0.18232484D+00 -0.28883319D-01  0.67869535D-02
  0.42678185D-02  0.67609415D-03  0.99754757D-03  0.62728468D-03  0.99372433D-04
 -0.28265175D+00 -0.27336846D+00 -0.85197009D-01 -0.36725210D-01  0.49122935D-01
  0.37073812D-01  0.40144231D+00  0.25243770D+00  0.39990373D-01  0.53776815D+00
  0.33816304D+00  0.53570707D-01 -0.43857532D-02 -0.27578793D-02 -0.43689441D-03
  0.16090867D+00  0.15562386D+00  0.48501160D-01  0.32521571D-01 -0.43500229D-01
 -0.32830272D-01  0.10028315D-01  0.63060734D-02  0.99898797D-03  0.18424941D+00
  0.11586097D+00  0.18354325D-01 -0.11949166D-02 -0.75139561D-03 -0.11903369D-03
  0.31725673D-01  0.30683690D-01  0.95627660D-02  0.64023414D-02 -0.85636488D-02
 -0.64631135D-02 -0.82161010D-01 -0.51665048D-01 -0.81846116D-02  0.24408040D-01
  0.15348430D-01  0.24314493D-02 -0.11798876D-04 -0.74194498D-05 -0.11753655D-05
 -0.33107376D-01 -0.32020013D-01 -0.99792393D-02 -0.33032161D-01 -0.31947268D-01
 -0.99565680D-02  0.67386388D-01  0.65173181D-01  0.20311634D-01  0.67484560D-01
  0.65268129D-01  0.20341225D-01 -0.13623627D-01 -0.13176179D-01 -0.41064395D-02
MO   11     MO 0.0        OCC NO =    1.9974149  ORB. ENERGY =    0.000000
  0.49611606D-01  0.47982186D-01  0.14953952D-01  0.42487258D-01 -0.56830140D-01
 -0.42890554D-01 -0.11538356D+00 -0.72556279D-01 -0.11494134D-01  0.71414039D+00
  0.44907064D+00  0.71140334D-01 -0.25277882D-02 -0.15895410D-02 -0.25181001D-03
  0.12103272D+00  0.11705758D+00  0.36481735D-01  0.46734499D-01 -0.62511168D-01
 -0.47178111D-01  0.73500341D+00  0.46218987D+00  0.73218640D-01 -0.32756356D+00
 -0.20598076D+00 -0.32630813D-01 -0.27410853D-02 -0.17236680D-02 -0.27305797D-03
 -0.68164259D-01 -0.65925504D-01 -0.20546100D-01 -0.13478774D-01  0.18028949D-01
  0.13606717D-01  0.56181265D-01  0.35328287D-01  0.55965943D-02  0.52792791D-01
  0.33197524D-01  0.52590455D-02 -0.81386321D-03 -0.51177902D-03 -0.81074396D-04
  0.18131909D-01  0.17536393D-01  0.54653277D-02  0.88906683D-03 -0.11891987D-02
 -0.89750601D-03  0.75007701D-01  0.47166855D-01  0.74720224D-02  0.15424752D+00
  0.96994978D-01  0.15365634D-01  0.28769875D-02  0.18091270D-02  0.28659611D-03
 -0.40723088D+00 -0.39385598D+00 -0.12274771D+00 -0.74503204D-01  0.99654054D-01
  0.75210401D-01  0.19181739D+00  0.12061992D+00  0.19108222D-01 -0.12167427D-01
 -0.76512044D-02 -0.12120793D-02 -0.88880055D-03 -0.55890164D-03 -0.88539410D-04
 -0.27552642D-01 -0.26647716D-01 -0.83049290D-02 -0.25662800D-01 -0.24819942D-01
 -0.77352920D-02  0.32618729D-02  0.31547414D-02  0.98319511D-03  0.27883841D-02
  0.26968037D-02  0.84047591D-03  0.44184321D-01  0.42733152D-01  0.13318057D-01
MO   12     MO 0.0        OCC NO =    1.9973385  ORB. ENERGY =    0.000000
 -0.88934264D-03 -0.86013349D-03 -0.26806604D-03 -0.47009659D-03  0.62879217D-03
  0.47455883D-03 -0.40384109D-03 -0.25394611D-03 -0.40229331D-04 -0.50674573D-02
 -0.31865531D-02 -0.50480355D-03 -0.38590277D+00 -0.24266602D+00 -0.38442374D-01
 -0.46729221D-03 -0.45194468D-03 -0.14085142D-03 -0.19520403D-03  0.26110116D-03
  0.19705694D-03 -0.66570531D-02 -0.41861336D-02 -0.66315390D-03  0.20354018D-02
  0.12799153D-02  0.20276008D-03 -0.40467896D-01 -0.25447299D-01 -0.40312797D-02
  0.78641002D-03  0.76058153D-03  0.23704004D-03  0.13875708D-03 -0.18559881D-03
 -0.14007419D-03 -0.87015070D-03 -0.54717411D-03 -0.86681573D-04  0.44452709D-03
  0.27953056D-03  0.44282337D-04  0.17533094D+00  0.11025280D+00  0.17465896D-01
 -0.12623921D-03 -0.12209307D-03 -0.38051077D-04  0.70592098D-05 -0.94422634D-05
 -0.71262170D-05 -0.12939704D-02 -0.81368330D-03 -0.12890110D-03  0.26299045D-02
  0.16537545D-02  0.26198250D-03  0.47809851D+00  0.30064117D+00  0.47626613D-01
  0.23364722D-02  0.22597342D-02  0.70426044D-03  0.42326048D-03 -0.56614508D-03
 -0.42727814D-03 -0.21360973D-02 -0.13432353D-02 -0.21279104D-03  0.31481464D-03
  0.19796389D-03  0.31360807D-04 -0.13544936D-01 -0.85174192D-02 -0.13493023D-02
 -0.10459348D+00 -0.10115826D+00 -0.31526612D-01  0.10489095D+00  0.10144596D+00
  0.31616275D-01 -0.18370639D-01 -0.17767282D-01 -0.55372857D-02  0.18166160D-01
  0.17569519D-01  0.54756517D-02 -0.39875392D-03 -0.38565743D-03 -0.12019258D-03
MO   13     MO 0.0        OCC NO =    1.9970506  ORB. ENERGY =    0.000000
  0.37502509D-01  0.36270794D-01  0.11304022D-01  0.46080206D-02 -0.61635998D-02
 -0.46517607D-02 -0.19478769D+00 -0.12248773D+00 -0.19404114D-01 -0.12209860D+00
 -0.76778874D-01 -0.12163064D-01  0.12287486D-01  0.77267012D-02  0.12240393D-02
  0.68670738D-01  0.66415348D-01  0.20698763D-01  0.26540829D-01 -0.35500503D-01
 -0.26792759D-01 -0.68876277D+00 -0.43311251D+00 -0.68612298D-01 -0.20534988D+00
 -0.12912952D+00 -0.20456285D-01  0.27847965D-02  0.17511548D-02  0.27741234D-03
  0.50154101D-01  0.48506863D-01  0.15117470D-01 -0.39402462D-02  0.52703976D-02
  0.39776477D-02 -0.28114602D+00 -0.17679216D+00 -0.28006849D-01 -0.28285782D+00
 -0.17786859D+00 -0.28177373D-01  0.12872914D-01  0.80948336D-02  0.12823576D-02
  0.69762747D-01  0.67471491D-01  0.21027917D-01  0.16405673D-01 -0.21943913D-01
 -0.16561398D-01  0.12983880D+00  0.81646120D-01  0.12934117D-01  0.20675109D+00
  0.13001063D+00  0.20595869D-01 -0.34303936D-02 -0.21571235D-02 -0.34172461D-03
 -0.35631389D+00 -0.34461128D+00 -0.10740028D+00 -0.70941255D-01  0.94889660D-01
  0.71614642D-01 -0.27686963D+00 -0.17410305D+00 -0.27580848D-01 -0.81025637D-01
 -0.50951095D-01 -0.80715094D-02  0.29241102D-02  0.18387590D-02  0.29129031D-03
 -0.46175548D-01 -0.44658980D-01 -0.13918253D-01 -0.47872022D-01 -0.46299735D-01
 -0.14429605D-01 -0.33294781D-01 -0.32201262D-01 -0.10035727D-01 -0.29556392D-01
 -0.28585655D-01 -0.89089002D-02 -0.31293935D-01 -0.30266131D-01 -0.94326312D-02
MO   14     MO 0.0        OCC NO =    1.9969719  ORB. ENERGY =    0.000000
 -0.60297506D-03 -0.58317123D-03 -0.18174900D-03  0.33948018D-04 -0.45408217D-04
 -0.34270259D-04  0.57837989D-02  0.36370080D-02  0.57616317D-03  0.38960840D-02
  0.24499622D-02  0.38811517D-03  0.84515701D+00  0.53145741D+00  0.84191783D-01
 -0.67211479D-03 -0.65004016D-03 -0.20258913D-03 -0.29356408D-03  0.39266567D-03
  0.29635064D-03  0.13247219D-01  0.83302068D-02  0.13196447D-02  0.26268624D-02
  0.16518415D-02  0.26167945D-03  0.47735793D-01  0.30017548D-01  0.47552839D-02
 -0.10960765D-02 -0.10600774D-02 -0.33037983D-03  0.25141750D-05 -0.33629122D-05
 -0.25380400D-05  0.48173896D-02  0.30293038D-02  0.47989262D-03  0.98558157D-02
  0.61976014D-02  0.98180418D-03  0.57381587D+00  0.36083082D+00  0.57161664D-01
 -0.11449424D-02 -0.11073384D-02 -0.34510902D-03 -0.28069760D-03  0.37545571D-03
  0.28336203D-03 -0.19708392D-02 -0.12393166D-02 -0.19632857D-03 -0.36081056D-02
 -0.22688736D-02 -0.35942770D-03 -0.51993616D-01 -0.32694981D-01 -0.51794343D-02
  0.52603406D-02  0.50875724D-02  0.15855741D-02  0.10694747D-02 -0.14305088D-02
 -0.10796263D-02  0.58759282D-02  0.36949413D-02  0.58534078D-03  0.12596351D-02
  0.79209235D-03  0.12548074D-03  0.17362235D+00  0.10917840D+00  0.17295692D-01
  0.28901659D-01  0.27952426D-01  0.87115504D-02 -0.27445674D-01 -0.26544261D-01
 -0.82726866D-02 -0.98277808D-01 -0.95050017D-01 -0.29622939D-01  0.99304658D-01
  0.96043141D-01  0.29932452D-01  0.77343901D-03  0.74803654D-03  0.23313031D-03
MO   15     MO 0.0        OCC NO =    1.9968429  ORB. ENERGY =    0.000000
 -0.10672834D-03 -0.10322300D-03 -0.32170101D-04  0.52156894D-04 -0.69764060D-04
 -0.52651976D-04 -0.28566127D-02 -0.17963147D-02 -0.28456643D-03  0.35050164D-02
  0.22040484D-02  0.34915829D-03 -0.11320870D+01 -0.71188671D+00 -0.11277482D+00
  0.18553373D-04  0.17944015D-04  0.55923656D-05  0.47297876D-05 -0.63264730D-05
 -0.47746835D-05  0.16259339D-02  0.10224309D-02  0.16197022D-03 -0.36749566D-04
 -0.23109113D-04 -0.36608718D-05 -0.29677509D-01 -0.18662014D-01 -0.29563765D-02
  0.21632792D-03  0.20922295D-03  0.65205653D-04  0.83105281D-04 -0.11116003D-03
 -0.83894131D-04 -0.22605871D-04 -0.14215178D-04 -0.22519231D-05  0.45099009D-02
  0.28359467D-02  0.44926161D-03  0.37507582D+00  0.23585774D+00  0.37363829D-01
  0.85780405D-04  0.82963073D-04  0.25855966D-04  0.45594248D-05 -0.60985990D-05
 -0.46027037D-05 -0.14691727D-04 -0.92385523D-05 -0.14635419D-05 -0.18807312D-02
 -0.11826542D-02 -0.18735230D-03 -0.14712805D+00 -0.92518068D-01 -0.14656416D-01
  0.61119424D-03  0.59112046D-03  0.18422643D-03  0.13735961D-03 -0.18372958D-03
 -0.13866346D-03  0.50250345D-03  0.31598765D-03  0.50057753D-04  0.52527449D-03
  0.33030670D-03  0.52326130D-04 -0.27723466D+00 -0.17433259D+00 -0.27617212D-01
  0.38302809D-01  0.37044809D-01  0.11545249D-01 -0.37875481D-01 -0.36631516D-01
 -0.11416443D-01 -0.65693801D-01 -0.63536185D-01 -0.19801454D-01  0.65920623D-01
  0.63755557D-01  0.19869822D-01  0.21247722D-03  0.20549872D-03  0.64044975D-04
MO   16     MO 0.0        OCC NO =    1.9961811  ORB. ENERGY =    0.000000
  0.60143635D-02  0.58168305D-02  0.18128520D-02 -0.45103930D-02  0.60330150D-02
  0.45532064D-02  0.14617381D+00  0.91918011D-01  0.14561357D-01 -0.19347641D+00
 -0.12166316D+00 -0.19273489D-01 -0.10533029D-02 -0.66234515D-03 -0.10492660D-03
  0.11467521D-02  0.11090888D-02  0.34565452D-03 -0.48453263D-02  0.64810153D-02
  0.48913189D-02  0.34755707D+00  0.21855321D+00  0.34622501D-01  0.15032785D+00
  0.94530189D-01  0.14975170D-01 -0.62803070D-03 -0.39492255D-03 -0.62562368D-04
 -0.73530411D-01 -0.71115412D-01 -0.22163568D-01 -0.11308671D-01  0.15126261D-01
  0.11416015D-01  0.50714819D+00  0.31890839D+00  0.50520447D-01 -0.38816755D+00
 -0.24409017D+00 -0.38667984D-01  0.40542672D-02  0.25494320D-02  0.40387286D-03
 -0.18549511D+00 -0.17940280D+00 -0.55912015D-01 -0.38648224D-01  0.51695121D-01
  0.39015079D-01 -0.24627667D+00 -0.15486538D+00 -0.24533278D-01  0.34113242D+00
  0.21451322D+00  0.33982498D-01 -0.31658208D-02 -0.19907531D-02 -0.31536874D-03
  0.10572666D+00  0.10225422D+00  0.31868174D-01  0.18932331D-01 -0.25323522D-01
 -0.19112040D-01 -0.45868831D-01 -0.28843552D-01 -0.45693032D-02 -0.28289904D-02
 -0.17789451D-02 -0.28181479D-03 -0.57113953D-03 -0.35914786D-03 -0.56895055D-04
 -0.39634789D-01 -0.38333042D-01 -0.11946735D-01 -0.39745416D-01 -0.38440036D-01
 -0.11980080D-01 -0.48235165D-01 -0.46650952D-01 -0.14539064D-01 -0.48124815D-01
 -0.46544226D-01 -0.14505802D-01  0.24589027D-02  0.23781437D-02  0.74116350D-03
MO   17     MO 0.0        OCC NO =    1.9959065  ORB. ENERGY =    0.000000
 -0.11210419D+00 -0.10842229D+00 -0.33790493D-01 -0.12144702D-01  0.16244520D-01
  0.12259981D-01  0.69165970D+00  0.43493418D+00  0.68900882D-01  0.73060455D+00
  0.45942374D+00  0.72780440D-01 -0.10125531D-02 -0.63672057D-03 -0.10086724D-03
  0.39832767D-01  0.38524518D-01  0.12006410D-01  0.13631953D-01 -0.18233838D-01
 -0.13761349D-01 -0.68231717D+00 -0.42905935D+00 -0.67970210D-01  0.77848946D-02
  0.48953506D-02  0.77550578D-03  0.20847908D-02  0.13109724D-02  0.20768006D-03
  0.35161608D-01  0.34006776D-01  0.10598427D-01  0.85063903D-02 -0.11377984D-01
 -0.85871344D-02 -0.40862393D-02 -0.25695369D-02 -0.40705782D-03 -0.42462333D-01
 -0.26701454D-01 -0.42299590D-02 -0.68183360D-03 -0.42875526D-03 -0.67922037D-04
 -0.21970448D-01 -0.21248860D-01 -0.66223416D-02 -0.40322124D-02  0.53934098D-02
  0.40704868D-02 -0.31692919D-01 -0.19929358D-01 -0.31571452D-02  0.11506252D-01
  0.72354399D-02  0.11462152D-02 -0.25807160D-03 -0.16228235D-03 -0.25708251D-04
  0.79603001D-01  0.76988557D-01  0.23993971D-01  0.17641221D-01 -0.23596558D-01
 -0.17808674D-01 -0.15269506D+00 -0.96018750D-01 -0.15210983D-01  0.11070285D+00
  0.69612920D-01  0.11027856D-01  0.56692966D-03  0.35650059D-03  0.56475682D-04
  0.27011677D-02  0.26124518D-02  0.81418711D-03  0.26165799D-02  0.25306422D-02
  0.78869064D-03 -0.35099023D-02 -0.33946247D-02 -0.10579562D-02 -0.37265793D-02
 -0.36041853D-02 -0.11232671D-02  0.12677991D+00  0.12261601D+00  0.38214055D-01
MO   18     MO 0.0        OCC NO =    1.9950208  ORB. ENERGY =    0.000000
  0.13003784D+00  0.12576693D+00  0.39196060D-01  0.35380207D-01 -0.47323884D-01
 -0.35716042D-01  0.43294422D+00  0.27224694D+00  0.43128490D-01 -0.12251272D+00
 -0.77039285D-01 -0.12204317D-01 -0.20698783D-02 -0.13015950D-02 -0.20619452D-03
  0.29869635D-01  0.28888610D-01  0.90033180D-02 -0.19286420D-01  0.25797144D-01
  0.19469490D-01  0.66805776D+00  0.42009265D+00  0.66549734D-01  0.67658677D+00
  0.42545592D+00  0.67399365D-01 -0.17551078D-02 -0.11036589D-02 -0.17483810D-03
  0.13469245D-01  0.13026867D-01  0.40599056D-02 -0.17472121D-02  0.23370373D-02
  0.17637969D-02 -0.22803154D+00 -0.14339235D+00 -0.22715758D-01  0.84920869D-01
  0.53400521D-01  0.84595397D-02 -0.33160331D-03 -0.20852106D-03 -0.33033239D-04