 opt isoleucine b3lyp
GAUSSIAN             36 MOL ORBITALS    174 PRIMITIVES       22 NUCLEI
  O    1    (CENTRE  1)   3.72256495 -1.71929309  2.55119343  CHARGE =  8.0
  O    2    (CENTRE  2)   4.20475159 -1.23091854 -1.84665649  CHARGE =  8.0
  N    3    (CENTRE  3)   1.07731072  3.13955211 -1.98788388  CHARGE =  7.0
  C    4    (CENTRE  4)  -1.56924316  0.41079297  0.99151841  CHARGE =  6.0
  C    5    (CENTRE  5)   1.12462112  1.57731383  0.43061983  CHARGE =  6.0
  C    6    (CENTRE  6)  -2.50047955 -1.25429280 -1.27579256  CHARGE =  6.0
  C    7    (CENTRE  7)  -3.44760038  2.59659707  1.60313026  CHARGE =  6.0
  C    8    (CENTRE  8)  -4.89182658 -2.84640568 -0.65029563  CHARGE =  6.0
  C    9    (CENTRE  9)   3.17734270 -0.57427268  0.18580581  CHARGE =  6.0
  H   10    (CENTRE 10)  -1.36727341 -0.81073551  2.67880429  CHARGE =  1.0
  H   11    (CENTRE 11)   1.64053741  2.81804483  2.03639793  CHARGE =  1.0
  H   12    (CENTRE 12)  -0.96416474 -2.55056335 -1.83647937  CHARGE =  1.0
  H   13    (CENTRE 13)  -2.89057407 -0.01230388 -2.90443038  CHARGE =  1.0
  H   14    (CENTRE 14)  -2.82085486  3.63929493  3.29033266  CHARGE =  1.0
  H   15    (CENTRE 15)  -3.52155720  3.91741350 -0.00130064  CHARGE =  1.0
  H   16    (CENTRE 16)  -5.35722111  1.85917698  1.96280252  CHARGE =  1.0
  H   17    (CENTRE 17)  -4.54424100 -4.08583605  0.98421761  CHARGE =  1.0
  H   18    (CENTRE 18)  -5.40304432 -4.03987055 -2.27584954  CHARGE =  1.0
  H   19    (CENTRE 19)  -6.51580074 -1.62595312 -0.21040447  CHARGE =  1.0
  H   20    (CENTRE 20)   1.68973797  1.81418097 -3.37753064  CHARGE =  1.0
  H   21    (CENTRE 21)   2.70154664  4.31282867 -1.83954614  CHARGE =  1.0
  H   22    (CENTRE 22)   5.03631730 -3.06924545  2.06196103  CHARGE =  1.0
CENTRE ASSIGNMENTS    1  1  1  1  1  1  1  1  1  1  1  1  1  1  1  2  2  2  2  2
CENTRE ASSIGNMENTS    2  2  2  2  2  2  2  2  2  2  3  3  3  3  3  3  3  3  3  3
CENTRE ASSIGNMENTS    3  3  3  3  3  4  4  4  4  4  4  4  4  4  4  4  4  4  4  4
CENTRE ASSIGNMENTS    5  5  5  5  5  5  5  5  5  5  5  5  5  5  5  6  6  6  6  6
CENTRE ASSIGNMENTS    6  6  6  6  6  6  6  6  6  6  7  7  7  7  7  7  7  7  7  7
CENTRE ASSIGNMENTS    7  7  7  7  7  8  8  8  8  8  8  8  8  8  8  8  8  8  8  8
CENTRE ASSIGNMENTS    9  9  9  9  9  9  9  9  9  9  9  9  9  9  9 10 10 10 11 11
CENTRE ASSIGNMENTS   11 12 12 12 13 13 13 14 14 14 15 15 15 16 16 16 17 17 17 18
CENTRE ASSIGNMENTS   18 18 19 19 19 20 20 20 21 21 21 22 22 22
TYPE ASSIGNMENTS      1  1  1  1  1  1  2  2  2  3  3  3  4  4  4  1  1  1  1  1
TYPE ASSIGNMENTS      1  2  2  2  3  3  3  4  4  4  1  1  1  1  1  1  2  2  2  3
TYPE ASSIGNMENTS      3  3  4  4  4  1  1  1  1  1  1  2  2  2  3  3  3  4  4  4
TYPE ASSIGNMENTS      1  1  1  1  1  1  2  2  2  3  3  3  4  4  4  1  1  1  1  1
TYPE ASSIGNMENTS      1  2  2  2  3  3  3  4  4  4  1  1  1  1  1  1  2  2  2  3
TYPE ASSIGNMENTS      3  3  4  4  4  1  1  1  1  1  1  2  2  2  3  3  3  4  4  4
TYPE ASSIGNMENTS      1  1  1  1  1  1  2  2  2  3  3  3  4  4  4  1  1  1  1  1
TYPE ASSIGNMENTS      1  1  1  1  1  1  1  1  1  1  1  1  1  1  1  1  1  1  1  1
TYPE ASSIGNMENTS      1  1  1  1  1  1  1  1  1  1  1  1  1  1
EXPONENTS  0.1307093D+03 0.2380887D+02 0.6443608D+01 0.5033151D+01 0.1169596D+01
EXPONENTS  0.3803890D+00 0.5033151D+01 0.1169596D+01 0.3803890D+00 0.5033151D+01
EXPONENTS  0.1169596D+01 0.3803890D+00 0.5033151D+01 0.1169596D+01 0.3803890D+00
EXPONENTS  0.1307093D+03 0.2380887D+02 0.6443608D+01 0.5033151D+01 0.1169596D+01
EXPONENTS  0.3803890D+00 0.5033151D+01 0.1169596D+01 0.3803890D+00 0.5033151D+01
EXPONENTS  0.1169596D+01 0.3803890D+00 0.5033151D+01 0.1169596D+01 0.3803890D+00
EXPONENTS  0.9910617D+02 0.1805231D+02 0.4885660D+01 0.3780456D+01 0.8784966D+00
EXPONENTS  0.2857144D+00 0.3780456D+01 0.8784966D+00 0.2857144D+00 0.3780456D+01
EXPONENTS  0.8784966D+00 0.2857144D+00 0.3780456D+01 0.8784966D+00 0.2857144D+00
EXPONENTS  0.7161684D+02 0.1304510D+02 0.3530512D+01 0.2941249D+01 0.6834831D+00
EXPONENTS  0.2222899D+00 0.2941249D+01 0.6834831D+00 0.2222899D+00 0.2941249D+01
EXPONENTS  0.6834831D+00 0.2222899D+00 0.2941249D+01 0.6834831D+00 0.2222899D+00
EXPONENTS  0.7161684D+02 0.1304510D+02 0.3530512D+01 0.2941249D+01 0.6834831D+00
EXPONENTS  0.2222899D+00 0.2941249D+01 0.6834831D+00 0.2222899D+00 0.2941249D+01
EXPONENTS  0.6834831D+00 0.2222899D+00 0.2941249D+01 0.6834831D+00 0.2222899D+00
EXPONENTS  0.7161684D+02 0.1304510D+02 0.3530512D+01 0.2941249D+01 0.6834831D+00
EXPONENTS  0.2222899D+00 0.2941249D+01 0.6834831D+00 0.2222899D+00 0.2941249D+01
EXPONENTS  0.6834831D+00 0.2222899D+00 0.2941249D+01 0.6834831D+00 0.2222899D+00
EXPONENTS  0.7161684D+02 0.1304510D+02 0.3530512D+01 0.2941249D+01 0.6834831D+00
EXPONENTS  0.2222899D+00 0.2941249D+01 0.6834831D+00 0.2222899D+00 0.2941249D+01
EXPONENTS  0.6834831D+00 0.2222899D+00 0.2941249D+01 0.6834831D+00 0.2222899D+00
EXPONENTS  0.7161684D+02 0.1304510D+02 0.3530512D+01 0.2941249D+01 0.6834831D+00
EXPONENTS  0.2222899D+00 0.2941249D+01 0.6834831D+00 0.2222899D+00 0.2941249D+01
EXPONENTS  0.6834831D+00 0.2222899D+00 0.2941249D+01 0.6834831D+00 0.2222899D+00
EXPONENTS  0.7161684D+02 0.1304510D+02 0.3530512D+01 0.2941249D+01 0.6834831D+00
EXPONENTS  0.2222899D+00 0.2941249D+01 0.6834831D+00 0.2222899D+00 0.2941249D+01
EXPONENTS  0.6834831D+00 0.2222899D+00 0.2941249D+01 0.6834831D+00 0.2222899D+00
EXPONENTS  0.3425251D+01 0.6239137D+00 0.1688554D+00 0.3425251D+01 0.6239137D+00
EXPONENTS  0.1688554D+00 0.3425251D+01 0.6239137D+00 0.1688554D+00 0.3425251D+01
EXPONENTS  0.6239137D+00 0.1688554D+00 0.3425251D+01 0.6239137D+00 0.1688554D+00
EXPONENTS  0.3425251D+01 0.6239137D+00 0.1688554D+00 0.3425251D+01 0.6239137D+00
EXPONENTS  0.1688554D+00 0.3425251D+01 0.6239137D+00 0.1688554D+00 0.3425251D+01
EXPONENTS  0.6239137D+00 0.1688554D+00 0.3425251D+01 0.6239137D+00 0.1688554D+00
EXPONENTS  0.3425251D+01 0.6239137D+00 0.1688554D+00 0.3425251D+01 0.6239137D+00
EXPONENTS  0.1688554D+00 0.3425251D+01 0.6239137D+00 0.1688554D+00
MO    1     MO 0.0        OCC NO =    2.0000000  ORB. ENERGY =  -18.941226
  0.42244373D+01  0.40856919D+01  0.12733317D+01 -0.68576360D-02  0.91726421D-02
  0.69227298D-02  0.24506753D-02  0.15410504D-02  0.24412827D-03 -0.12466988D-02
 -0.78395768D-03 -0.12419207D-03 -0.65128008D-02 -0.40954239D-02 -0.64878396D-03
  0.37807085D-02  0.36565367D-02  0.11395828D-02 -0.47783374D-04  0.63914123D-04
  0.48236942D-04  0.53639668D-03  0.33730063D-03  0.53434087D-04 -0.74129971D-03
 -0.46614915D-03 -0.73845858D-04  0.65567730D-03  0.41230748D-03  0.65316432D-04
  0.54979887D-05  0.53174153D-05  0.16572061D-05 -0.28835674D-05  0.38570043D-05
  0.29109387D-05 -0.54036822D-04 -0.33979804D-04 -0.53829718D-05  0.37211932D-04
  0.23399862D-04  0.37069312D-05 -0.20548212D-04 -0.12921267D-04 -0.20469458D-05
 -0.40540749D-04 -0.39209248D-04 -0.12219810D-04 -0.15692638D-04  0.20990171D-04
  0.15841595D-04  0.15055162D-04  0.94670898D-05  0.14997461D-05 -0.63249888D-04
 -0.39773227D-04 -0.63007474D-05  0.24982573D-04  0.15709713D-04  0.24886824D-05
 -0.67041811D-04 -0.64839921D-04 -0.20207771D-04 -0.50192389D-04  0.67136375D-04
  0.50668824D-04  0.13382141D-03  0.84150494D-04  0.13330852D-04 -0.12993109D-03
 -0.81704157D-04 -0.12943311D-04  0.23532739D-03  0.14798018D-03  0.23442547D-04
  0.60628523D-05  0.58637268D-05  0.18274675D-05  0.49868656D-05 -0.66703357D-05
 -0.50342018D-05 -0.48601351D-05 -0.30561834D-05 -0.48415079D-06 -0.11801348D-05
 -0.74210040D-06 -0.11756117D-06  0.40672046D-05  0.25575674D-05  0.40516164D-06
 -0.12177116D-05 -0.11777177D-05 -0.36704315D-06 -0.61918308D-06  0.82820739D-06
  0.62506047D-06  0.47252974D-05  0.29713938D-05  0.47071870D-06 -0.23616853D-05
 -0.14850911D-05 -0.23526338D-06 -0.17996954D-05 -0.11316968D-05 -0.17927978D-06
  0.32406284D-06  0.31341947D-06  0.97679158D-07  0.92877010D-07 -0.12423050D-06
 -0.93758614D-07  0.83003733D-07  0.52194975D-07  0.82685610D-08  0.21746689D-05
  0.13674902D-05  0.21663342D-06 -0.10220703D-05 -0.64270526D-06 -0.10181531D-06
  0.15991953D-02  0.15466721D-02  0.48203013D-03  0.77111393D-03 -0.10314272D-02
 -0.77843348D-03 -0.79139323D-03 -0.49764930D-03 -0.78836010D-04  0.17854655D-02
  0.11227486D-02  0.17786225D-03 -0.39648474D-02 -0.24932024D-02 -0.39496515D-03
 -0.47105153D-04 -0.45558053D-04 -0.14198455D-04 -0.35923569D-04 -0.34743712D-04
 -0.10828098D-04  0.12130774D-04  0.11732356D-04  0.36564630D-05  0.20596072D-05
  0.19919624D-05  0.62080769D-06  0.12488555D-05  0.12078386D-05  0.37643055D-06
  0.79247804D-06  0.76645026D-06  0.23886907D-06  0.58947100D-06  0.57011069D-06
  0.17767860D-06  0.14988737D-05  0.14496454D-05  0.45179115D-06 -0.14329898D-06
 -0.13859254D-06 -0.43193240D-07 -0.98590578D-07 -0.95352515D-07 -0.29717214D-07
 -0.30206061D-04 -0.29213987D-04 -0.91047239D-05  0.20577703D-06  0.19901859D-06
  0.62025400D-07 -0.17549037D-02 -0.16972664D-02 -0.52896381D-03
MO    2     MO 0.0        OCC NO =    2.0000000  ORB. ENERGY =  -18.877026
 -0.41101173D-02 -0.39751265D-02 -0.12388733D-02 -0.57800948D-04  0.77313437D-04
  0.58349605D-04  0.54906838D-03  0.34526893D-03  0.54696399D-04 -0.46211932D-03
 -0.29059303D-03 -0.46034818D-04 -0.61381370D-03 -0.38598253D-03 -0.61146117D-04
  0.42246698D+01  0.40859167D+01  0.12734018D+01 -0.68920681D-02  0.92186979D-02
  0.69574888D-02 -0.42138972D-02 -0.26498116D-02 -0.41977468D-03  0.26951191D-02
  0.16947632D-02  0.26847896D-03  0.83104824D-02  0.52258543D-02  0.82786312D-03
 -0.73734010D-04 -0.71312325D-04 -0.22224937D-04 -0.37847749D-04  0.50624421D-04
  0.38207006D-04  0.11850688D-03  0.74520305D-04  0.11805268D-04 -0.14348620D-03
 -0.90227971D-04 -0.14293627D-04 -0.25791788D-03 -0.16218569D-03 -0.25692937D-04
 -0.11856718D-04 -0.11467302D-04 -0.35738570D-05 -0.40939832D-05  0.54760332D-05
  0.41328439D-05  0.21125170D-04  0.13284074D-04  0.21044205D-05  0.12024417D-05
  0.75612758D-06  0.11978331D-06  0.10565560D-04  0.66439076D-05  0.10525066D-05
 -0.60743377D-04 -0.58748350D-04 -0.18309295D-04 -0.26099042D-04  0.34909578D-04
  0.26346779D-04  0.10320915D-03  0.64900682D-04  0.10281358D-04 -0.34116362D-05
 -0.21453284D-05 -0.33985606D-06 -0.44149904D-03 -0.27762644D-03 -0.43980693D-04
 -0.19762559D-04 -0.19113486D-04 -0.59568389D-05 -0.54929520D-05  0.73472670D-05
  0.55450920D-05  0.46237745D-04  0.29075535D-04  0.46060532D-05 -0.58832220D-05
 -0.36995279D-05 -0.58606737D-06  0.37326033D-05  0.23471611D-05  0.37182976D-06
 -0.24974361D-05 -0.24154114D-05 -0.75277824D-06 -0.72706520D-06  0.97250844D-06
  0.73396663D-06  0.62539746D-05  0.39326671D-05  0.62300054D-06 -0.23136238D-05
 -0.14548687D-05 -0.23047565D-06  0.10667754D-05  0.67081701D-06  0.10626869D-06
 -0.88369405D-06 -0.85467041D-06 -0.26636344D-06 -0.74676302D-06  0.99885587D-06
  0.75385142D-06  0.15362362D-06  0.96602653D-07  0.15303483D-07  0.52482781D-05
  0.33002581D-05  0.52281633D-06 -0.15903093D-05 -0.10000292D-05 -0.15842142D-06
  0.18426073D-02  0.17820895D-02  0.55539947D-03  0.12568833D-02 -0.16811829D-02
 -0.12688138D-02 -0.27479018D-02 -0.17279544D-02 -0.27373701D-03  0.17644469D-02
  0.11095315D-02  0.17576844D-03  0.53993609D-02  0.33952630D-02  0.53786670D-03
 -0.93792532D-05 -0.90712054D-05 -0.28270985D-05  0.85753247D-05  0.82936807D-05
  0.25847780D-05 -0.34523452D-05 -0.33389579D-05 -0.10406073D-05  0.30880321D-05
  0.29866102D-05  0.93079595D-06  0.79832658D-06  0.77210671D-06  0.24063194D-06
  0.25397834D-06  0.24563680D-06  0.76554261D-07  0.58383833D-06  0.56466302D-06
  0.17598080D-06  0.50856206D-06  0.49185909D-06  0.15329099D-06  0.27180442D-07
  0.26287740D-07  0.81927403D-08 -0.24802199D-06 -0.23987607D-06 -0.74758895D-07
 -0.16261761D-03 -0.15727668D-03 -0.49016271D-04  0.80689282D-07  0.78039161D-07
  0.24321398D-07 -0.35007622D-04 -0.33857848D-04 -0.10552012D-04
MO    3     MO 0.0        OCC NO =    2.0000000  ORB. ENERGY =  -14.105908
  0.24839391D-04  0.24023578D-04  0.74870999D-05  0.35051434D-05 -0.46884124D-05
 -0.35384148D-05  0.71182801D-04  0.44761655D-04  0.70909983D-05 -0.63062670D-04
 -0.39655499D-04 -0.62820973D-05 -0.37433647D-04 -0.23539282D-04 -0.37290177D-05
 -0.17375279D-03 -0.16804613D-03 -0.52372640D-04 -0.35878463D-04  0.47990343D-04
  0.36219028D-04 -0.15022641D-03 -0.94466399D-04 -0.14965065D-04  0.20421553D-03
  0.12841621D-03  0.20343285D-04 -0.30738239D-03 -0.19329029D-03 -0.30620430D-04
  0.34289984D+01  0.33163780D+01  0.10335702D+01 -0.67866799D-02  0.90777327D-02
  0.68511003D-02  0.59028506D-02  0.37118709D-02  0.58802271D-03 -0.29948753D-02
 -0.18832580D-02 -0.29833970D-03  0.92148236D-03  0.57945283D-03  0.91795064D-04
 -0.11312865D-04 -0.10941311D-04 -0.34099286D-05 -0.39354054D-04  0.52639226D-04
  0.39727609D-04  0.82354573D-04  0.51786766D-04  0.82038938D-05  0.61257991D-04
  0.38520669D-04  0.61023211D-05 -0.10489677D-03 -0.65961901D-04 -0.10449473D-04
  0.15884511D-02  0.15362808D-02  0.47879161D-03  0.92398367D-03 -0.12359028D-02
 -0.93275429D-03 -0.18131366D-04 -0.11401489D-04 -0.18061875D-05 -0.24114154D-02
 -0.15163627D-02 -0.24021733D-03  0.37011869D-02  0.23274056D-02  0.36870015D-03
 -0.20238835D-04 -0.19574120D-04 -0.61003984D-05 -0.85994132D-05  0.11502410D-04
  0.86810404D-05  0.69188368D-05  0.43507503D-05  0.68923194D-06  0.15148780D-04
  0.95259592D-05  0.15090720D-05 -0.48627914D-04 -0.30578537D-04 -0.48441541D-05
 -0.44144678D-04 -0.42694810D-04 -0.13306108D-04 -0.28459908D-04  0.38067426D-04
  0.28730054D-04 -0.19007495D-04 -0.11952423D-04 -0.18934646D-05  0.74790066D-04
  0.47030001D-04  0.74503423D-05 -0.42508656D-04 -0.26730584D-04 -0.42345735D-05
  0.13000529D-05  0.12573546D-05  0.39186251D-06  0.64968040D-06 -0.86900001D-06
 -0.65584727D-06 -0.41350375D-05 -0.26002225D-05 -0.41191893D-06  0.67798055D-05
  0.42633236D-05  0.67538209D-06  0.34911667D-05  0.21953393D-05  0.34777863D-06
 -0.75608600D-04 -0.73125347D-04 -0.22789976D-04 -0.72900463D-04  0.97510258D-04
  0.73592447D-04 -0.10527003D-03 -0.66196622D-04 -0.10486657D-04  0.22672937D-03
  0.14257351D-03  0.22586040D-04 -0.23845236D-03 -0.14994524D-03 -0.23753846D-04
 -0.31579786D-04 -0.30542594D-04 -0.95187925D-05  0.12786517D-03  0.12366562D-03
  0.38541173D-04  0.27575063D-04  0.26669400D-04  0.83116872D-05 -0.39971127D-04
 -0.38658334D-04 -0.12048114D-04 -0.66602340D-05 -0.64414884D-05 -0.20075306D-05
 -0.10047862D-03 -0.97178549D-04 -0.30286309D-04 -0.31123961D-05 -0.30101740D-05
 -0.93813976D-06  0.13004684D-05  0.12577564D-05  0.39198773D-06  0.57632844D-06
  0.55739978D-06  0.17371716D-06  0.47692344D-06  0.46125959D-06  0.14375447D-06
 -0.21516059D-02 -0.20809396D-02 -0.64853798D-03 -0.21558977D-02 -0.20850904D-02
 -0.64983159D-03 -0.11047923D-05 -0.10685070D-05 -0.33300698D-06
MO    4     MO 0.0        OCC NO =    2.0000000  ORB. ENERGY =  -10.101518
  0.26219508D-02  0.25358366D-02  0.79030952D-03  0.12887054D-02 -0.17237475D-02
 -0.13009380D-02  0.16885127D-02  0.10617821D-02  0.16820412D-03 -0.31091929D-02
 -0.19551439D-02 -0.30972765D-03  0.54241442D-02  0.34108474D-02  0.54033554D-03
  0.23512298D-02  0.22740071D-02  0.70870869D-03  0.18081832D-02 -0.24185912D-02
 -0.18253468D-02  0.22884400D-02  0.14390325D-02  0.22796692D-03 -0.14148206D-02
 -0.88967717D-03 -0.14093981D-03 -0.47293897D-02 -0.29739671D-02 -0.47112636D-03
 -0.15573723D-03 -0.15062227D-03 -0.46942382D-04 -0.12061676D-03  0.16133467D-03
  0.12176168D-03  0.47365628D-04  0.29784778D-04  0.47184093D-05 -0.19887520D-03
 -0.12505806D-03 -0.19811298D-04 -0.37963944D-04 -0.23872746D-04 -0.37818441D-05
 -0.10591667D-02 -0.10243800D-02 -0.31925449D-03 -0.29564685D-04  0.39545155D-04
  0.29845319D-04 -0.10039962D-03 -0.63133975D-04 -0.10001482D-04  0.18443713D-03
  0.11597902D-03  0.18373025D-04  0.69816073D-04  0.43902220D-04  0.69548493D-05
 -0.25303899D-01 -0.24472829D-01 -0.76271120D-02  0.10997095D-02 -0.14709504D-02
 -0.11101482D-02 -0.31303711D-02 -0.19684613D-02 -0.31183735D-03  0.31981473D-02
  0.20110808D-02  0.31858899D-03  0.54682941D-03  0.34386101D-03  0.54473361D-04
  0.43575353D-03  0.42144184D-03  0.13134501D-03 -0.60466357D-04  0.80878637D-04
  0.61040314D-04  0.58883493D-04  0.37027521D-04  0.58657814D-05 -0.16121502D-03
 -0.10137633D-03 -0.16059714D-04 -0.10682592D-03 -0.67175004D-04 -0.10641649D-04
 -0.31368956D-03 -0.30338689D-03 -0.94552441D-04  0.23626214D-04 -0.31601971D-04
 -0.23850479D-04 -0.10205651D-03 -0.64175873D-04 -0.10166537D-04  0.34510348D-04
  0.21701033D-04  0.34378082D-05  0.31998380D-04  0.20121440D-04  0.31875741D-05
 -0.28094329D-04 -0.27171612D-04 -0.84682047D-05  0.68575556D-05 -0.91725346D-05
 -0.69226487D-05 -0.19632937D-05 -0.12345717D-05 -0.19557691D-06 -0.20461467D-04
 -0.12866720D-04 -0.20383046D-05  0.17091837D-04  0.10747806D-04  0.17026330D-05
  0.26839244D+01  0.25957749D+01  0.80898965D+00 -0.60474689D-02  0.80889782D-02
  0.61048725D-02  0.24115360D-03  0.15164385D-03  0.24022934D-04 -0.21553662D-03
 -0.13553521D-03 -0.21471054D-04 -0.67242552D-03 -0.42283921D-03 -0.66984835D-04
 -0.68325055D-04 -0.66081019D-04 -0.20594567D-04 -0.60838082D-05 -0.58839945D-05
 -0.18337841D-05 -0.25858078D-03 -0.25008807D-03 -0.77941528D-04 -0.12050318D-05
 -0.11654543D-05 -0.36322120D-06  0.23968064D-05  0.23180868D-05  0.72244642D-06
 -0.21616892D-05 -0.20906916D-05 -0.65157727D-06 -0.22694309D-05 -0.21948948D-05
 -0.68405283D-06  0.35727375D-05  0.34553961D-05  0.10768961D-05  0.48076112D-05
  0.46497122D-05  0.14491122D-05  0.30829557D-05  0.29817005D-05  0.92926582D-06
 -0.22874632D-03 -0.22123348D-03 -0.68948813D-04 -0.52157383D-04 -0.50444350D-04
 -0.15721300D-04 -0.47186377D-03 -0.45636610D-03 -0.14222938D-03
MO    5     MO 0.0        OCC NO =    2.0000000  ORB. ENERGY =  -10.050195
 -0.62961784D-04 -0.60893897D-04 -0.18977968D-04 -0.60495793D-04  0.80918010D-04
  0.61070029D-04 -0.49837468D-04 -0.31339137D-04 -0.49646459D-05  0.15034834D-03
  0.94543073D-04  0.14977211D-04 -0.12846240D-03 -0.80780602D-04 -0.12797005D-04
 -0.93484502D-04 -0.90414140D-04 -0.28178138D-04 -0.33839156D-04  0.45262604D-04
  0.34160363D-04 -0.36973558D-03 -0.23249966D-03 -0.36831852D-04  0.45346578D-03
  0.28515145D-03  0.45172781D-04 -0.14278026D-03 -0.89784058D-04 -0.14223303D-04
  0.26880431D-02  0.25997582D-02  0.81023108D-03  0.11516332D-02 -0.15404025D-02
 -0.11625647D-02  0.12276674D-03  0.77199022D-04  0.12229622D-04  0.30539485D-02
  0.19204048D-02  0.30422438D-03 -0.49360086D-02 -0.31038947D-02 -0.49170906D-03
 -0.45432896D-01 -0.43940719D-01 -0.13694403D-01  0.12096871D-02 -0.16180543D-02
 -0.12211697D-02 -0.42435489D-02 -0.26684574D-02 -0.42272849D-03 -0.18404691D-02
 -0.11573364D-02 -0.18334152D-03  0.91206781D-03  0.57353272D-03  0.90857218D-04
  0.26815698D+01  0.25934975D+01  0.80827990D+00 -0.68830399D-02  0.92066219D-02
  0.69483749D-02  0.25416852D-03  0.15982799D-03  0.25319439D-04  0.12005761D-03
  0.75495446D-04  0.11959747D-04  0.58391034D-03  0.36717849D-03  0.58167242D-04
 -0.12273978D-02 -0.11870857D-02 -0.36996276D-03 -0.42757935D-04  0.57192192D-04
  0.43163801D-04 -0.56752183D-04 -0.35687296D-04 -0.56534672D-05 -0.10812468D-04
 -0.67991699D-05 -0.10771027D-05  0.14320252D-03  0.90049588D-04  0.14265368D-04
 -0.13277153D-02 -0.12841084D-02 -0.40020050D-03 -0.40363677D-04  0.53989679D-04
  0.40746816D-04 -0.73463861D-04 -0.46196047D-04 -0.73182301D-05 -0.18828187D-03
 -0.11839669D-03 -0.18756026D-04 -0.14508995D-04 -0.91236452D-05 -0.14453387D-05
 -0.60837789D-03 -0.58839661D-03 -0.18337752D-03  0.19351720D-04 -0.25884488D-04
 -0.19535409D-04 -0.55176204D-04 -0.34696278D-04 -0.54964734D-05 -0.70278352D-04
 -0.44192914D-04 -0.70009000D-05 -0.34998536D-04 -0.22008018D-04 -0.34864399D-05
  0.29387866D-01  0.28422664D-01  0.88581030D-02  0.10639976D-02 -0.14231828D-02
 -0.10740973D-02  0.33199131D-02  0.20876504D-02  0.33071891D-03 -0.35220831D-02
 -0.22147804D-02 -0.35085842D-03 -0.36112280D-03 -0.22708371D-03 -0.35973874D-04
  0.67426388D-04  0.65211867D-04  0.20323691D-04 -0.25506101D-02 -0.24668390D-02
 -0.76880597D-03 -0.35440350D-04 -0.34276364D-04 -0.10682445D-04 -0.64029328D-05
 -0.61926379D-05 -0.19299747D-05  0.25425562D-04  0.24590496D-04  0.76637837D-05
 -0.31391991D-04 -0.30360967D-04 -0.94621874D-05 -0.46958643D-04 -0.45416355D-04
 -0.14154294D-04  0.42098324D-06  0.40715667D-06  0.12689295D-06 -0.22644593D-05
 -0.21900864D-05 -0.68255427D-06  0.15064004D-05  0.14569248D-05  0.45405984D-06
 -0.14773922D-03 -0.14288694D-03 -0.44531619D-04 -0.12983909D-03 -0.12557471D-03
 -0.39136153D-04 -0.44370768D-04 -0.42913476D-04 -0.13374256D-04
MO    6     MO 0.0        OCC NO =    2.0000000  ORB. ENERGY =  -10.020856
 -0.87173853D-04 -0.84310755D-04 -0.26275980D-04 -0.26386001D-04  0.35293408D-04
  0.26636462D-04 -0.14707411D-03 -0.92484147D-04 -0.14651043D-04  0.61900821D-04
  0.38924897D-04  0.61663577D-05 -0.17065948D-04 -0.10731526D-04 -0.17000541D-05
 -0.23886388D-04 -0.23101874D-04 -0.71998451D-05 -0.54920933D-05  0.73461185D-05
  0.55442252D-05 -0.63158724D-04 -0.39715901D-04 -0.62916659D-05 -0.12763027D-04
 -0.80257341D-05 -0.12714111D-05  0.27615133D-04  0.17365137D-04  0.27509294D-05
  0.75840204D-04  0.73349344D-04  0.22859787D-04 -0.18692316D-04  0.25002482D-04
  0.18869746D-04  0.98782169D-04  0.62116879D-04  0.98403572D-05  0.23320528D-04
  0.14664574D-04  0.23231149D-05  0.43421722D-04  0.27304744D-04  0.43255302D-05
  0.26790555D+01  0.25910658D+01  0.80752204D+00 -0.70623032D-02  0.94464011D-02
  0.71293398D-02 -0.60967406D-04 -0.38337941D-04 -0.60733739D-05 -0.26906222D-03
 -0.16919355D-03 -0.26803100D-04  0.40493039D-03  0.25463109D-03  0.40337843D-04
  0.49383007D-01  0.47761094D-01  0.14885047D-01  0.98994697D-03 -0.13241341D-02
 -0.99934372D-03  0.43129735D-02  0.27121135D-02  0.42964434D-03  0.18601136D-02
  0.11696894D-02  0.18529845D-03 -0.85966704D-03 -0.54058170D-03 -0.85637224D-04
 -0.96388633D-01 -0.93222890D-01 -0.29053503D-01  0.13819489D-02 -0.18484683D-02
 -0.13950666D-02 -0.15260676D-02 -0.95963224D-03 -0.15202187D-03 -0.26895256D-02
 -0.16912458D-02 -0.26792176D-03 -0.36508564D-02 -0.22957565D-02 -0.36368640D-03
 -0.50359849D-01 -0.48705854D-01 -0.15179487D-01  0.12828829D-02 -0.17159595D-02
 -0.12950603D-02 -0.30696853D-02 -0.19303005D-02 -0.30579202D-03  0.36083614D-02
  0.22690345D-02  0.35945318D-03  0.98316243D-03  0.61823892D-03  0.97939431D-04
 -0.71531847D-03 -0.69182488D-03 -0.21561160D-03 -0.65684355D-04  0.87858131D-04
  0.66307842D-04  0.18015232D-03  0.11328461D-03  0.17946186D-04  0.92577262D-04
  0.58215067D-04  0.92222447D-05 -0.10348900D-03 -0.65076661D-04 -0.10309236D-04
  0.17885825D-02  0.17298391D-02  0.53911530D-03  0.10047556D-04 -0.13439418D-04
 -0.10142929D-04  0.51258067D-04  0.32232448D-04  0.51061613D-05  0.40199630D-04
  0.25278606D-04  0.40045559D-05 -0.76277800D-05 -0.47965528D-05 -0.75985454D-06
 -0.25508187D-02 -0.24670408D-02 -0.76886886D-03 -0.73166918D-05 -0.70763858D-05
 -0.22054004D-05  0.12601564D-03  0.12187685D-03  0.37983689D-04  0.10964067D-03
  0.10603968D-03  0.33047937D-04  0.86975920D-04  0.84119323D-04  0.26216319D-04
  0.64417729D-04  0.62302023D-04  0.19416819D-04  0.83731745D-04  0.80981698D-04
  0.25238458D-04  0.12813808D-04  0.12392957D-04  0.38623435D-05 -0.38927248D-04
 -0.37648740D-04 -0.11733468D-04 -0.12933122D-04 -0.12508352D-04 -0.38983070D-05
  0.36300390D-06  0.35108157D-06  0.10941679D-06 -0.44415903D-04 -0.42957128D-04
 -0.13387860D-04  0.37723662D-05  0.36484684D-05  0.11370682D-05
MO    7     MO 0.0        OCC NO =    2.0000000  ORB. ENERGY =  -10.006919
  0.38223660D-05  0.36968260D-05  0.11521392D-05  0.34821743D-05 -0.46576895D-05
 -0.35152277D-05 -0.18153988D-04 -0.11415715D-04 -0.18084411D-05 -0.72765302D-05
 -0.45756774D-05 -0.72486418D-06  0.21531174D-04  0.13539380D-04  0.21448652D-05
 -0.47975795D-04 -0.46400100D-04 -0.14460884D-04 -0.91865729D-05  0.12287783D-04
  0.92737735D-05 -0.10179190D-03 -0.64009479D-04 -0.10140177D-04 -0.44306151D-04
 -0.27860897D-04 -0.44136341D-05 -0.54979835D-04 -0.34572796D-04 -0.54769117D-05
 -0.33777803D-04 -0.32668421D-04 -0.10181320D-04 -0.15821716D-04  0.21162824D-04
  0.15971899D-04 -0.31725552D-04 -0.19949878D-04 -0.31603959D-05  0.21569662D-04
  0.13563582D-04  0.21486993D-05 -0.10450375D-05 -0.65714764D-06 -0.10410323D-06
  0.99844751D-01  0.96565496D-01  0.30095247D-01  0.85431721D-03 -0.11427183D-02
 -0.86242653D-03  0.14971580D-02  0.94145314D-03  0.14914199D-03  0.27150769D-02
  0.17073132D-02  0.27046710D-03  0.36779217D-02  0.23127759D-02  0.36638256D-03
  0.30905394D-02  0.29890351D-02  0.93155170D-03  0.90785580D-05 -0.12143305D-04
 -0.91647333D-05  0.10618984D-03  0.66775019D-04  0.10578285D-04  0.88450883D-04
  0.55620289D-04  0.88111882D-05  0.65119239D-04  0.40948725D-04  0.64869660D-05
  0.26710133D+01  0.25832878D+01  0.80509797D+00 -0.71953120D-02  0.96243110D-02
  0.72636111D-02 -0.87138969D-04 -0.54795322D-04 -0.86804996D-05 -0.41575376D-03
 -0.26143712D-03 -0.41416033D-04 -0.62051211D-03 -0.39019467D-03 -0.61813391D-04
 -0.10061625D-01 -0.97311654D-02 -0.30327792D-02  0.43419372D-04 -0.58076918D-04
 -0.43831516D-04 -0.56103147D-04 -0.35279164D-04 -0.55888123D-05  0.12089356D-03
  0.76021115D-04  0.12043022D-04  0.10883057D-03  0.68435582D-04  0.10841346D-04
 -0.21505716D+00 -0.20799392D+00 -0.64822620D-01  0.17310090D-02 -0.23153644D-02
 -0.17474400D-02 -0.39075082D-02 -0.24571460D-02 -0.38925321D-03 -0.26095257D-02
 -0.16409398D-02 -0.25995243D-03  0.10233833D-02  0.64353089D-03  0.10194611D-03
 -0.50002884D-03 -0.48360613D-03 -0.15071891D-03 -0.21280176D-04  0.28463955D-04
  0.21482171D-04 -0.51972302D-04 -0.32681578D-04 -0.51773110D-05 -0.57095216D-04
 -0.35903004D-04 -0.56876390D-05 -0.15681315D-04 -0.98608320D-05 -0.15621215D-05
 -0.67399565D-04 -0.65185925D-04 -0.20315606D-04 -0.41326736D-04 -0.39969420D-04
 -0.12456722D-04 -0.25498303D-02 -0.24660849D-02 -0.76857095D-03 -0.25416061D-02
 -0.24581308D-02 -0.76609200D-03 -0.28046268D-04 -0.27125129D-04 -0.84537180D-05
  0.28920168D-04  0.27970328D-04  0.87171294D-05 -0.16599142D-04 -0.16053968D-04
 -0.50033205D-05  0.23391932D-03  0.22623658D-03  0.70508061D-04  0.24894655D-03
  0.24077026D-03  0.75037575D-04  0.23681193D-03  0.22903418D-03  0.71379951D-04
 -0.12709534D-05 -0.12292108D-05 -0.38309132D-06 -0.37519168D-05 -0.36286906D-05
 -0.11309044D-05  0.24761074D-05  0.23947833D-05  0.74634935D-06
MO    8     MO 0.0        OCC NO =    2.0000000  ORB. ENERGY =  -10.000583
  0.10553426D-05  0.10206814D-05  0.31810181D-06  0.63818720D-06 -0.85362693D-06
 -0.64424498D-06 -0.28150316D-05 -0.17701674D-05 -0.28042426D-06 -0.28178158D-05
 -0.17719182D-05 -0.28070162D-06  0.28153690D-05  0.17703796D-05  0.28045787D-06
 -0.50215812D-05 -0.48566547D-05 -0.15136071D-05 -0.16330570D-05  0.21843457D-05
  0.16485583D-05 -0.76417438D-05 -0.48053336D-05 -0.76124557D-06  0.12137181D-05
  0.76321850D-06  0.12090663D-06 -0.84742191D-08 -0.53288164D-08 -0.84417404D-09
  0.87969757D-06  0.85080519D-06  0.26515882D-06 -0.35994202D-05  0.48145153D-05
  0.36335865D-05  0.29330915D-04  0.18444066D-04  0.29218500D-05  0.11405004D-04
  0.71717725D-05  0.11361293D-05  0.19924218D-05  0.12528883D-05  0.19847856D-06
  0.88433705D-02  0.85529229D-02  0.26655725D-02  0.43119100D-04 -0.57675280D-04
 -0.43528394D-04  0.15884153D-03  0.99883815D-04  0.15823274D-04  0.17912153D-03
  0.11263643D-03  0.17843502D-04  0.23931313D-03  0.15048652D-03  0.23839593D-04
  0.95590899D-03  0.92451356D-03  0.28813049D-03  0.14652238D-04 -0.19598552D-04
 -0.14791319D-04  0.71005890D-04  0.44650409D-04  0.70733749D-05  0.54833576D-04
  0.34480824D-04  0.54623418D-05  0.51969743D-04  0.32679969D-04  0.51770562D-05
  0.21896803D+00  0.21177634D+00  0.66001436D-01  0.55572373D-03 -0.74332538D-03
 -0.56099875D-03  0.39556524D-02  0.24874204D-02  0.39404918D-03  0.25984856D-02
  0.16339975D-02  0.25885265D-03 -0.10872870D-02 -0.68371523D-03 -0.10831198D-03
 -0.18367346D-02 -0.17764098D-02 -0.55362934D-03  0.72579154D-05 -0.97080482D-05
 -0.73268088D-05  0.28820602D-04  0.18123168D-04  0.28710143D-05  0.17351918D-04
  0.10911352D-04  0.17285415D-05 -0.34856325D-04 -0.21918592D-04 -0.34722733D-05
  0.26729943D+01  0.25852037D+01  0.80569508D+00 -0.71759661D-02  0.95984344D-02
  0.72440816D-02 -0.73117914D-03 -0.45978507D-03 -0.72837679D-04 -0.52104149D-03
 -0.32764487D-03 -0.51904452D-04  0.15227725D-03  0.95756021D-04  0.15169362D-04
  0.63739528D-05  0.61646096D-05  0.19212396D-05 -0.12240559D-05  0.16372736D-05
  0.12356748D-05 -0.12783800D-05 -0.80387967D-06 -0.12734805D-06 -0.32734331D-07
 -0.20584226D-07 -0.32608872D-08  0.70828935D-05  0.44539135D-05  0.70557473D-06
 -0.10388162D-04 -0.10046978D-04 -0.31312042D-05 -0.82782897D-05 -0.80064014D-05
 -0.24952456D-05 -0.16989583D-03 -0.16431585D-03 -0.51210073D-04 -0.16872118D-03
 -0.16317978D-03 -0.50856010D-04 -0.30392931D-06 -0.29394719D-06 -0.91610501D-07
  0.31831456D-05  0.30785999D-05  0.95946511D-06  0.43525562D-04  0.42096029D-04
  0.13119494D-04 -0.25347090D-02 -0.24514602D-02 -0.76401307D-03 -0.25366962D-02
 -0.24533821D-02 -0.76461204D-03 -0.25400814D-02 -0.24566561D-02 -0.76563240D-03
 -0.10591072D-04 -0.10243224D-04 -0.31923654D-05 -0.26951441D-05 -0.26066260D-05
 -0.81237147D-06  0.38703342D-06  0.37432187D-06  0.11665978D-06
MO    9     MO 0.0        OCC NO =    2.0000000  ORB. ENERGY =   -9.994871
 -0.33824040D-05 -0.32713139D-05 -0.10195256D-05 -0.22647944D-05  0.30293455D-05
  0.22862922D-05 -0.26554054D-05 -0.16697902D-05 -0.26452282D-06  0.45742195D-05
  0.28763920D-05  0.45566881D-06 -0.12133327D-04 -0.76297618D-05 -0.12086825D-05
 -0.55709045D-05 -0.53879363D-05 -0.16791844D-05 -0.13722107D-05  0.18354426D-05
  0.13852359D-05 -0.23055984D-04 -0.14498222D-04 -0.22967619D-05 -0.26530607D-05
 -0.16683157D-05 -0.26428924D-06 -0.18092104D-05 -0.11376801D-05 -0.18022764D-06
 -0.75882319D-04 -0.73390076D-04 -0.22872481D-04 -0.24535823D-04  0.32818645D-04
  0.24768721D-04 -0.93123497D-04 -0.58558554D-04 -0.92766588D-05 -0.80242341D-05
 -0.50458537D-05 -0.79934800D-06  0.29160071D-04  0.18336635D-04  0.29048311D-05