 opt isoleucine pbe0
GAUSSIAN             58 MOL ORBITALS    174 PRIMITIVES       22 NUCLEI
  O    1    (CENTRE  1)   3.63069105 -1.71731922  2.51465528  CHARGE =  8.0
  O    2    (CENTRE  2)   4.20419291 -1.22101735 -1.80686019  CHARGE =  8.0
  N    3    (CENTRE  3)   1.05690641  3.14961087 -1.92985374  CHARGE =  7.0
  C    4    (CENTRE  4)  -1.54106564  0.40067118  0.96686373  CHARGE =  6.0
  C    5    (CENTRE  5)   1.11654053  1.56019506  0.41390578  CHARGE =  6.0
  C    6    (CENTRE  6)  -2.48228811 -1.20932610 -1.29434148  CHARGE =  6.0
  C    7    (CENTRE  7)  -3.39787113  2.55043748  1.61915730  CHARGE =  6.0
  C    8    (CENTRE  8)  -4.81336439 -2.82931589 -0.65575636  CHARGE =  6.0
  C    9    (CENTRE  9)   3.14180929 -0.56980633  0.18193040  CHARGE =  6.0
  H   10    (CENTRE 10)  -1.32836436 -0.84168147  2.62056233  CHARGE =  1.0
  H   11    (CENTRE 11)   1.63476237  2.77317885  2.02368638  CHARGE =  1.0
  H   12    (CENTRE 12)  -0.95146180 -2.46365630 -1.91433170  CHARGE =  1.0
  H   13    (CENTRE 13)  -2.92492286  0.05149874 -2.87814256  CHARGE =  1.0
  H   14    (CENTRE 14)  -2.76305079  3.56392797  3.30539418  CHARGE =  1.0
  H   15    (CENTRE 15)  -3.48666293  3.88810209  0.04602725  CHARGE =  1.0
  H   16    (CENTRE 16)  -5.29253515  1.81150009  1.98122985  CHARGE =  1.0
  H   17    (CENTRE 17)  -4.41422317 -4.08909182  0.93478053  CHARGE =  1.0
  H   18    (CENTRE 18)  -5.34638306 -3.98969974 -2.28203786  CHARGE =  1.0
  H   19    (CENTRE 19)  -6.43218711 -1.64773216 -0.15476169  CHARGE =  1.0
  H   20    (CENTRE 20)   1.40449795  1.85744952 -3.39894700  CHARGE =  1.0
  H   21    (CENTRE 21)   2.75282485  4.17909125 -1.88831157  CHARGE =  1.0
  H   22    (CENTRE 22)   4.92772613 -3.05060281  2.06091111  CHARGE =  1.0
CENTRE ASSIGNMENTS    1  1  1  1  1  1  1  1  1  1  1  1  1  1  1  2  2  2  2  2
CENTRE ASSIGNMENTS    2  2  2  2  2  2  2  2  2  2  3  3  3  3  3  3  3  3  3  3
CENTRE ASSIGNMENTS    3  3  3  3  3  4  4  4  4  4  4  4  4  4  4  4  4  4  4  4
CENTRE ASSIGNMENTS    5  5  5  5  5  5  5  5  5  5  5  5  5  5  5  6  6  6  6  6
CENTRE ASSIGNMENTS    6  6  6  6  6  6  6  6  6  6  7  7  7  7  7  7  7  7  7  7
CENTRE ASSIGNMENTS    7  7  7  7  7  8  8  8  8  8  8  8  8  8  8  8  8  8  8  8
CENTRE ASSIGNMENTS    9  9  9  9  9  9  9  9  9  9  9  9  9  9  9 10 10 10 11 11
CENTRE ASSIGNMENTS   11 12 12 12 13 13 13 14 14 14 15 15 15 16 16 16 17 17 17 18
CENTRE ASSIGNMENTS   18 18 19 19 19 20 20 20 21 21 21 22 22 22
TYPE ASSIGNMENTS      1  1  1  1  1  1  2  2  2  3  3  3  4  4  4  1  1  1  1  1
TYPE ASSIGNMENTS      1  2  2  2  3  3  3  4  4  4  1  1  1  1  1  1  2  2  2  3
TYPE ASSIGNMENTS      3  3  4  4  4  1  1  1  1  1  1  2  2  2  3  3  3  4  4  4
TYPE ASSIGNMENTS      1  1  1  1  1  1  2  2  2  3  3  3  4  4  4  1  1  1  1  1
TYPE ASSIGNMENTS      1  2  2  2  3  3  3  4  4  4  1  1  1  1  1  1  2  2  2  3
TYPE ASSIGNMENTS      3  3  4  4  4  1  1  1  1  1  1  2  2  2  3  3  3  4  4  4
TYPE ASSIGNMENTS      1  1  1  1  1  1  2  2  2  3  3  3  4  4  4  1  1  1  1  1
TYPE ASSIGNMENTS      1  1  1  1  1  1  1  1  1  1  1  1  1  1  1  1  1  1  1  1
TYPE ASSIGNMENTS      1  1  1  1  1  1  1  1  1  1  1  1  1  1
EXPONENTS  0.1307093D+03 0.2380887D+02 0.6443608D+01 0.5033151D+01 0.1169596D+01
EXPONENTS  0.3803890D+00 0.5033151D+01 0.1169596D+01 0.3803890D+00 0.5033151D+01
EXPONENTS  0.1169596D+01 0.3803890D+00 0.5033151D+01 0.1169596D+01 0.3803890D+00
EXPONENTS  0.1307093D+03 0.2380887D+02 0.6443608D+01 0.5033151D+01 0.1169596D+01
EXPONENTS  0.3803890D+00 0.5033151D+01 0.1169596D+01 0.3803890D+00 0.5033151D+01
EXPONENTS  0.1169596D+01 0.3803890D+00 0.5033151D+01 0.1169596D+01 0.3803890D+00
EXPONENTS  0.9910617D+02 0.1805231D+02 0.4885660D+01 0.3780456D+01 0.8784966D+00
EXPONENTS  0.2857144D+00 0.3780456D+01 0.8784966D+00 0.2857144D+00 0.3780456D+01
EXPONENTS  0.8784966D+00 0.2857144D+00 0.3780456D+01 0.8784966D+00 0.2857144D+00
EXPONENTS  0.7161684D+02 0.1304510D+02 0.3530512D+01 0.2941249D+01 0.6834831D+00
EXPONENTS  0.2222899D+00 0.2941249D+01 0.6834831D+00 0.2222899D+00 0.2941249D+01
EXPONENTS  0.6834831D+00 0.2222899D+00 0.2941249D+01 0.6834831D+00 0.2222899D+00
EXPONENTS  0.7161684D+02 0.1304510D+02 0.3530512D+01 0.2941249D+01 0.6834831D+00
EXPONENTS  0.2222899D+00 0.2941249D+01 0.6834831D+00 0.2222899D+00 0.2941249D+01
EXPONENTS  0.6834831D+00 0.2222899D+00 0.2941249D+01 0.6834831D+00 0.2222899D+00
EXPONENTS  0.7161684D+02 0.1304510D+02 0.3530512D+01 0.2941249D+01 0.6834831D+00
EXPONENTS  0.2222899D+00 0.2941249D+01 0.6834831D+00 0.2222899D+00 0.2941249D+01
EXPONENTS  0.6834831D+00 0.2222899D+00 0.2941249D+01 0.6834831D+00 0.2222899D+00
EXPONENTS  0.7161684D+02 0.1304510D+02 0.3530512D+01 0.2941249D+01 0.6834831D+00
EXPONENTS  0.2222899D+00 0.2941249D+01 0.6834831D+00 0.2222899D+00 0.2941249D+01
EXPONENTS  0.6834831D+00 0.2222899D+00 0.2941249D+01 0.6834831D+00 0.2222899D+00
EXPONENTS  0.7161684D+02 0.1304510D+02 0.3530512D+01 0.2941249D+01 0.6834831D+00
EXPONENTS  0.2222899D+00 0.2941249D+01 0.6834831D+00 0.2222899D+00 0.2941249D+01
EXPONENTS  0.6834831D+00 0.2222899D+00 0.2941249D+01 0.6834831D+00 0.2222899D+00
EXPONENTS  0.7161684D+02 0.1304510D+02 0.3530512D+01 0.2941249D+01 0.6834831D+00
EXPONENTS  0.2222899D+00 0.2941249D+01 0.6834831D+00 0.2222899D+00 0.2941249D+01
EXPONENTS  0.6834831D+00 0.2222899D+00 0.2941249D+01 0.6834831D+00 0.2222899D+00
EXPONENTS  0.3425251D+01 0.6239137D+00 0.1688554D+00 0.3425251D+01 0.6239137D+00
EXPONENTS  0.1688554D+00 0.3425251D+01 0.6239137D+00 0.1688554D+00 0.3425251D+01
EXPONENTS  0.6239137D+00 0.1688554D+00 0.3425251D+01 0.6239137D+00 0.1688554D+00
EXPONENTS  0.3425251D+01 0.6239137D+00 0.1688554D+00 0.3425251D+01 0.6239137D+00
EXPONENTS  0.1688554D+00 0.3425251D+01 0.6239137D+00 0.1688554D+00 0.3425251D+01
EXPONENTS  0.6239137D+00 0.1688554D+00 0.3425251D+01 0.6239137D+00 0.1688554D+00
EXPONENTS  0.3425251D+01 0.6239137D+00 0.1688554D+00 0.3425251D+01 0.6239137D+00
EXPONENTS  0.1688554D+00 0.3425251D+01 0.6239137D+00 0.1688554D+00
MO    1     MO 0.0        OCC NO =    2.0000005  ORB. ENERGY =    0.000000
  0.14308975D+00  0.13839018D+00  0.43130174D-01  0.27262652D-03 -0.36466000D-03
 -0.27521434D-03  0.60729664D-03  0.38188442D-03  0.60496909D-04 -0.10342463D-02
 -0.65036183D-03 -0.10302824D-03  0.11534518D-03  0.72532142D-04  0.11490310D-04
  0.22703096D+01  0.21957446D+01  0.68431769D+00  0.11960374D-03 -0.15997966D-03
 -0.12073904D-03 -0.60102913D-02 -0.37794325D-02 -0.59872560D-03  0.35167967D-02
  0.22114561D-02  0.35033180D-03  0.10363944D-01  0.65171262D-02  0.10324223D-02
  0.26403923D+01  0.25536725D+01  0.79586817D+00 -0.22039432D-02  0.29479521D-02
  0.22248634D-02  0.15721425D-01  0.98860540D-02  0.15661170D-02 -0.10403208D-01
 -0.65418161D-02 -0.10363336D-02  0.13385997D-02  0.84174740D-03  0.13334693D-03
 -0.62082641D-02 -0.60043627D-02 -0.18712976D-02 -0.50382521D-04  0.67390692D-04
  0.50860761D-04  0.48310328D-03  0.30378831D-03  0.48125172D-04  0.25175684D-03
  0.15831146D-03  0.25079195D-04  0.17897381D-04  0.11254353D-04  0.17828786D-05
  0.18488040D-01  0.17880828D-01  0.55726730D-02  0.97116132D-03 -0.12990067D-02
 -0.98037975D-03 -0.24810842D-03 -0.15601724D-03 -0.24715751D-04 -0.42260264D-03
 -0.26574388D-03 -0.42098295D-04  0.17741844D-02  0.11156548D-02  0.17673846D-03
  0.30456203D-01  0.29455914D-01  0.91801216D-02 -0.10199553D-03  0.13642726D-03
  0.10296369D-03 -0.67825517D-05 -0.42650505D-05 -0.67565566D-06 -0.96074320D-04
 -0.60414111D-04 -0.95706102D-05 -0.98049344D-04 -0.61656058D-04 -0.97673555D-05
  0.56697151D-01  0.54835016D-01  0.17089679D-01 -0.17387715D-03  0.23257473D-03
  0.17552762D-03 -0.22718928D-03 -0.14286272D-03 -0.22631855D-04  0.13143935D-03
  0.82652588D-04  0.13093559D-04 -0.14795722D-05 -0.93039470D-06 -0.14739015D-06
  0.74584149D-02  0.72134542D-02  0.22481186D-02 -0.19058869D-04  0.25492777D-04
  0.19239779D-04  0.56071247D-04  0.35259105D-04  0.55856346D-05  0.51053358D-04
  0.32103722D-04  0.50857689D-05  0.25028591D-05  0.15738650D-05  0.24932665D-06
  0.95224192D+00  0.92096693D+00  0.28702517D+00 -0.15563665D-02  0.20817659D-02
  0.15711398D-02  0.10786876D-03  0.67830768D-04  0.10745533D-04 -0.14196642D-03
 -0.89272295D-04 -0.14142231D-04  0.70429128D-03  0.44287726D-03  0.70159198D-04
 -0.82511082D-04 -0.79801126D-04 -0.24870525D-04  0.13403216D-03  0.12963007D-03
  0.40400032D-04 -0.12273935D-03 -0.11870815D-03 -0.36996146D-04 -0.13177105D-03
 -0.12744323D-03 -0.39718487D-04 -0.69369142D-04 -0.67090814D-04 -0.20909276D-04
 -0.28926691D-03 -0.27976636D-03 -0.87190955D-04 -0.12256051D-04 -0.11853519D-04
 -0.36942242D-05 -0.12329598D-05 -0.11924650D-05 -0.37163926D-06 -0.24347168D-04
 -0.23547521D-04 -0.73387336D-05 -0.62385445D-05 -0.60336487D-05 -0.18804247D-05
 -0.14332262D-02 -0.13861539D-02 -0.43200364D-03 -0.13187045D-02 -0.12753935D-02
 -0.39748446D-03 -0.47291299D-03 -0.45738085D-03 -0.14254563D-03
MO    2     MO 0.0        OCC NO =    2.0000005  ORB. ENERGY =    0.000000
  0.12626504D+00  0.12211805D+00  0.38058862D-01  0.16825463D-03 -0.22505416D-03
 -0.16985174D-03  0.11268816D-02  0.70861340D-03  0.11225627D-03 -0.12636928D-02
 -0.79464395D-03 -0.12588495D-03  0.12439023D-02  0.78219917D-03  0.12391349D-03
  0.29733377D+01  0.28756828D+01  0.89622471D+00 -0.27284351D-03  0.36495024D-03
  0.27543339D-03 -0.70639051D-02 -0.44419731D-02 -0.70368317D-03  0.44324428D-02
  0.27872390D-02  0.44154549D-03  0.13409574D-01  0.84323001D-02  0.13358180D-02
 -0.21932951D+01 -0.21212595D+01 -0.66110394D+00  0.19873305D-02 -0.26582151D-02
 -0.20061946D-02 -0.11824521D-01 -0.74355760D-02 -0.11779202D-02  0.77509153D-02
  0.48739835D-02  0.77212088D-03 -0.15528882D-02 -0.97649776D-03 -0.15469365D-03
 -0.12583501D-03 -0.12170215D-03 -0.37929243D-04 -0.40891072D-05  0.54695112D-05
  0.41279217D-05 -0.17146605D-03 -0.10782245D-03 -0.17080888D-04 -0.51988427D-04
 -0.32691718D-04 -0.51789174D-05  0.62171264D-04  0.39094959D-04  0.61932983D-05
 -0.19651034D-01 -0.19005624D-01 -0.59232229D-02 -0.28385006D-04  0.37967239D-04
  0.28654442D-04 -0.24012507D-02 -0.15099709D-02 -0.23920476D-03  0.32913689D-02
  0.20697011D-02  0.32787543D-03 -0.15548345D-02 -0.97772168D-03 -0.15488754D-03
 -0.21820786D-01 -0.21104114D-01 -0.65772307D-02  0.28183566D-04 -0.37697796D-04
 -0.28451089D-04  0.94808389D-04  0.59618059D-04  0.94445022D-05  0.57484484D-05
  0.36147786D-05  0.57264166D-06  0.69599588D-04  0.43766089D-04  0.69332838D-05
 -0.60995462D-01 -0.58992156D-01 -0.18385278D-01  0.22323935D-03 -0.29860067D-03
 -0.22535838D-03 -0.99770348D-04 -0.62738272D-04 -0.99387964D-05  0.46440296D-04
  0.29202905D-04  0.46262307D-05  0.76852748D-04  0.48327070D-04  0.76558198D-05
 -0.72879444D-02 -0.70485826D-02 -0.21967353D-02  0.19928502D-04 -0.26655981D-04
 -0.20117666D-04 -0.23379168D-04 -0.14701448D-04 -0.23289564D-05 -0.31783134D-04
 -0.19986088D-04 -0.31661321D-05 -0.73149083D-05 -0.45998106D-05 -0.72868728D-06
  0.86365253D+00  0.83528712D+00  0.26032251D+00 -0.13045445D-02  0.17449336D-02
  0.13169274D-02 -0.97604713D-03 -0.61376463D-03 -0.97230629D-04  0.20430252D-03
  0.12847091D-03  0.20351951D-04  0.25002427D-02  0.15722197D-02  0.24906601D-03
  0.52479124D-04  0.50755524D-04  0.15818280D-04  0.25748119D-04  0.24902460D-04
  0.77610089D-05 -0.94511545D-04 -0.91407452D-04 -0.28487710D-04  0.10280813D-03
  0.99431547D-04  0.30988470D-04  0.59979579D-04  0.58009638D-04  0.18079070D-04
  0.22626252D-03  0.21883126D-03  0.68200146D-04  0.89729654D-04  0.86782615D-04
  0.27046351D-04  0.30791676D-05  0.29780369D-05  0.92812401D-06  0.23936842D-04
  0.23150671D-04  0.72150531D-05  0.64073752D-05  0.61969344D-05  0.19313138D-05
  0.95904713D-03  0.92754863D-03  0.28907639D-03  0.10889757D-02  0.10532099D-02
  0.32823952D-03 -0.28390547D-03 -0.27458101D-03 -0.85574908D-04
MO    3     MO 0.0        OCC NO =    2.0000003  ORB. ENERGY =    0.000000
  0.41894076D+01  0.40518127D+01  0.12627730D+01 -0.53743713D-03  0.71886558D-03
  0.54253858D-03  0.82607813D-02  0.51946009D-02  0.82291206D-03 -0.41999004D-02
 -0.26410101D-02 -0.41838037D-03 -0.19809309D-01 -0.12456625D-01 -0.19733386D-02
 -0.49066164D+00 -0.47454658D+00 -0.14789544D+00 -0.35474423D-04  0.47449907D-04
  0.35811153D-04  0.12658375D-02  0.79599261D-03  0.12609860D-03 -0.76277956D-03
 -0.47965626D-03 -0.75985610D-04 -0.23676343D-02 -0.14888320D-02 -0.23585600D-03
 -0.65542389D-01 -0.63389746D-01 -0.19755815D-01  0.86259254D-04 -0.11537872D-03
 -0.87078042D-04 -0.27774071D-03 -0.17465081D-03 -0.27667623D-04  0.18370455D-03
  0.11551835D-03  0.18300048D-04 -0.50048496D-04 -0.31471837D-04 -0.49856678D-05
  0.54103104D-01  0.52326167D-01  0.16307781D-01 -0.17545818D-03  0.23468949D-03
  0.17712366D-03  0.19120325D-04  0.12023374D-04  0.19047044D-05 -0.45372546D-04
 -0.28531475D-04 -0.45198649D-05  0.32964349D-04  0.20728867D-04  0.32838008D-05
 -0.52718246D-02 -0.50986792D-02 -0.15890356D-02  0.11003613D-03 -0.14718222D-03
 -0.11108061D-03 -0.32791737D-03 -0.20620324D-03 -0.32666058D-04  0.47896571D-03
  0.30118649D-03  0.47713001D-04  0.25310595D-03  0.15915981D-03  0.25213588D-04
 -0.14550764D-02 -0.14072865D-02 -0.43858974D-03  0.23687686D-04 -0.31684193D-04
 -0.23912533D-04 -0.36548308D-04 -0.22982557D-04 -0.36408231D-05 -0.53213115D-04
 -0.33461834D-04 -0.53009168D-05 -0.52546976D-04 -0.33042949D-04 -0.52345582D-05
  0.18328640D-02  0.17726663D-02  0.55246265D-03  0.21257864D-04 -0.28434110D-04
 -0.21459647D-04 -0.76760624D-04 -0.48269140D-04 -0.76466428D-05  0.71552554D-04
  0.44994166D-04  0.71278318D-05  0.33643952D-04  0.21156220D-04  0.33515007D-05
  0.17842944D-03  0.17256919D-03  0.53782279D-04 -0.74408161D-06  0.99526927D-06
  0.75114456D-06  0.70631504D-05  0.44414985D-05  0.70360799D-06  0.21308525D-05
  0.13399373D-05  0.21226857D-06 -0.24411776D-05 -0.15350780D-05 -0.24318214D-06
  0.32696492D+00  0.31622624D+00  0.98553906D-01 -0.29396741D-03  0.39320515D-03
  0.29675779D-03  0.79637198D-03  0.50078007D-03  0.79331977D-04  0.28935917D-03
  0.18195681D-03  0.28825016D-04 -0.46417751D-02 -0.29188728D-02 -0.46239848D-03
 -0.18514141D-03 -0.17906071D-03 -0.55805403D-04 -0.68109127D-04 -0.65872183D-04
 -0.20529482D-04 -0.15696160D-04 -0.15180642D-04 -0.47311431D-05  0.68463685D-05
  0.66215095D-05  0.20636353D-05 -0.36600545D-06 -0.35398453D-06 -0.11032152D-06
  0.18762648D-05  0.18146416D-05  0.56554452D-06  0.67608341D-05  0.65387844D-05
  0.20378535D-05  0.29694943D-05  0.28719656D-05  0.89506622D-06  0.45149780D-06
  0.43666902D-06  0.13609066D-06 -0.15409538D-05 -0.14903434D-05 -0.46447495D-06
  0.49321360D-04  0.47701472D-04  0.14866465D-04  0.32806752D-04  0.31729263D-04
  0.98886253D-05 -0.14037878D-02 -0.13576825D-02 -0.42313033D-03
MO    4     MO 0.0        OCC NO =    2.0000002  ORB. ENERGY =    0.000000
  0.67681218D+00  0.65458327D+00  0.20400501D+00 -0.12936235D-02  0.17303260D-02
  0.13059028D-02  0.18137869D-03  0.11405579D-03  0.18068353D-04  0.13045667D-02
  0.82034657D-03  0.12995668D-03 -0.59156530D-02 -0.37199213D-02 -0.58929804D-03
  0.19336459D+01  0.18701381D+01  0.58284037D+00 -0.78531084D-03  0.10504167D-02
  0.79276515D-03 -0.40588986D-02 -0.25523444D-02 -0.40433423D-03  0.25522290D-02
  0.16049101D-02  0.25424472D-03  0.73693799D-02  0.46340638D-02  0.73411356D-03
  0.24507297D+00  0.23702391D+00  0.73869999D-01 -0.16577712D-03  0.22174029D-03
  0.16735071D-03  0.58932530D-03  0.37058356D-03  0.58706663D-04  0.17618443D-03
  0.11078950D-03  0.17550918D-04 -0.51451224D-03 -0.32353911D-03 -0.51254030D-04
  0.77085057D-01  0.74553311D-01  0.23235011D-01 -0.19560772D-04  0.26164113D-04
  0.19746447D-04 -0.46835313D-03 -0.29451302D-03 -0.46655810D-04 -0.38135933D-03
 -0.23980898D-03 -0.37989772D-04  0.59658398D-04  0.37514801D-04  0.59429748D-05
  0.44239717D+00  0.42786728D+00  0.13334754D+00 -0.20459116D-02  0.27365720D-02
  0.20653317D-02  0.33357728D-02  0.20976235D-02  0.33229880D-03 -0.32582120D-02
 -0.20488512D-02 -0.32457245D-03 -0.60905657D-03 -0.38299112D-03 -0.60672228D-04
  0.66527562D-02  0.64342562D-02  0.20052766D-02  0.61148451D-04 -0.81790994D-04
 -0.61728883D-04 -0.10657894D-03 -0.67019698D-04 -0.10617046D-04  0.42629698D-04
  0.26806698D-04  0.42466313D-05 -0.15680739D-04 -0.98604696D-05 -0.15620640D-05
  0.38548111D-01  0.37282055D-01  0.11619188D-01 -0.11856752D-03  0.15859363D-03
  0.11969298D-03  0.12386518D-03  0.77889747D-04  0.12339045D-04 -0.59456780D-04
 -0.37388019D-04 -0.59228903D-05 -0.43708605D-04 -0.27485144D-04 -0.43541085D-05
  0.50076138D-02  0.48431461D-02  0.15093971D-02 -0.15793218D-04  0.21124705D-04
  0.15943130D-04  0.15353309D-05  0.96545725D-06  0.15294465D-06  0.10388916D-04
  0.65328291D-05  0.10349099D-05 -0.18309324D-04 -0.11513394D-04 -0.18239151D-05
 -0.22989459D+01 -0.22234404D+01 -0.69294926D+00  0.57203046D-02 -0.76513695D-02
 -0.57746027D-02 -0.24763104D-02 -0.15571705D-02 -0.24668196D-03  0.20595180D-02
  0.12950802D-02  0.20516246D-03  0.29831375D-02  0.18758769D-02  0.29717042D-03
 -0.52138191D-04 -0.50425789D-04 -0.15715516D-04 -0.36823445D-03 -0.35614033D-03
 -0.11099338D-03  0.19927130D-03  0.19272653D-03  0.60064441D-04 -0.55081568D-05
 -0.53272494D-05 -0.16602710D-05 -0.30620968D-04 -0.29615267D-04 -0.92297852D-05
 -0.42519829D-04 -0.41123327D-04 -0.12816345D-04 -0.64916310D-04 -0.62784229D-04
 -0.19567102D-04 -0.36313900D-05 -0.35121223D-05 -0.10945751D-05 -0.13031858D-04
 -0.12603846D-04 -0.39280683D-05 -0.92924254D-05 -0.89872293D-05 -0.28009268D-05
 -0.16656465D-03 -0.16109408D-03 -0.50205988D-04 -0.11193135D-03 -0.10825513D-03
 -0.33738396D-04  0.14856407D-03  0.14368470D-03  0.44780246D-04
MO    5     MO 0.0        OCC NO =    2.0000001  ORB. ENERGY =    0.000000
 -0.11053604D+00 -0.10690564D+00 -0.33317820D-01  0.16149780D-03 -0.21601635D-03
 -0.16303076D-03 -0.61013416D-05 -0.38366873D-05 -0.60779573D-06  0.16584359D-03
  0.10428690D-03  0.16520797D-04  0.48483721D-03  0.30487865D-03  0.48297900D-04
 -0.12850414D+00 -0.12428361D+00 -0.38733772D-01  0.83422539D-04 -0.11158439D-03
 -0.84214401D-04 -0.89712928D-04 -0.56413896D-04 -0.89369090D-05  0.15978241D-03
  0.10047547D-03  0.15917002D-04 -0.52686478D-03 -0.33130671D-03 -0.52484549D-04
 -0.81550328D-01 -0.78871927D-01 -0.24580934D-01  0.36755997D-03 -0.49164115D-03
 -0.37104891D-03 -0.13543057D-03 -0.85162374D-04 -0.13491151D-04  0.84551514D-03
  0.53168261D-03  0.84227458D-04 -0.91088614D-03 -0.57278965D-03 -0.90739503D-04
  0.19572693D+01  0.18929857D+01  0.58996095D+00 -0.42458385D-02  0.56791520D-02
  0.42861407D-02  0.48618520D-03  0.30572630D-03  0.48432183D-04 -0.78323981D-04
 -0.49252221D-04 -0.78023793D-05  0.12308282D-02  0.77397778D-03  0.12261108D-03
  0.76207827D+00  0.73704892D+00  0.22970596D+00 -0.12924850D-02  0.17288031D-02
  0.13047535D-02  0.20693280D-02  0.13012490D-02  0.20613970D-03  0.11304442D-02
  0.71085365D-03  0.11261116D-03 -0.43915406D-03 -0.27615186D-03 -0.43747094D-04
  0.13234073D+01  0.12799420D+01  0.39890200D+00 -0.27095221D-02  0.36242047D-02
  0.27352414D-02 -0.30721598D-03 -0.19318565D-03 -0.30603853D-04 -0.11918102D-02
 -0.74944222D-03 -0.11872424D-03 -0.20669990D-02 -0.12997844D-02 -0.20590769D-03
  0.83483966D+00  0.80742057D+00  0.25163772D+00 -0.15594375D-02  0.20858737D-02
  0.15742400D-02 -0.16214246D-02 -0.10195953D-02 -0.16152103D-03  0.18438429D-02
  0.11594579D-02  0.18367761D-03  0.69025335D-03  0.43404983D-03  0.68760786D-04
  0.53787665D+00  0.52021088D+00  0.16212701D+00 -0.99953694D-03  0.13369614D-02
  0.10090247D-02 -0.12978007D-02 -0.81609189D-03 -0.12928267D-03 -0.99464386D-03
 -0.62545875D-03 -0.99083174D-04  0.20686854D-03  0.13008449D-03  0.20607568D-04
  0.17087008D+00  0.16525810D+00  0.51503733D-01 -0.18352090D-03  0.24547403D-03
  0.18526291D-03  0.89075671D-03  0.56013172D-03  0.88734276D-04 -0.88708451D-03
 -0.55782255D-03 -0.88368463D-04 -0.26537235D-03 -0.16687326D-03 -0.26435527D-04
 -0.16382480D-02 -0.15844422D-02 -0.49380142D-03 -0.65336694D-03 -0.63190806D-03
 -0.19693814D-03 -0.11033533D-02 -0.10671152D-02 -0.33257321D-03 -0.11325978D-02
 -0.10953993D-02 -0.34138812D-03 -0.66103892D-03 -0.63932806D-03 -0.19925063D-03
 -0.72940838D-03 -0.70545203D-03 -0.21985858D-03 -0.67961505D-03 -0.65729409D-03
 -0.20484986D-03 -0.45966510D-03 -0.44456807D-03 -0.13855245D-03 -0.41744664D-03
 -0.40373622D-03 -0.12582694D-03 -0.44855000D-03 -0.43381803D-03 -0.13520213D-03
 -0.43275764D-04 -0.41854435D-04 -0.13044199D-04 -0.13134321D-04 -0.12702944D-04
 -0.39589527D-05  0.44922168D-05  0.43446765D-05  0.13540459D-05
MO    6     MO 0.0        OCC NO =    2.0000001  ORB. ENERGY =    0.000000
  0.72428499D-01  0.70049691D-01  0.21831429D-01 -0.11696698D-03  0.15645278D-03
  0.11807725D-03  0.51551305D-04  0.32416844D-04  0.51353727D-05 -0.39383510D-04
 -0.24765408D-04 -0.39232567D-05 -0.29647673D-03 -0.18643252D-03 -0.29534044D-04
  0.13300797D+00  0.12863951D+00  0.40091318D-01 -0.73427532D-04  0.98215256D-04
  0.74124519D-04  0.14000472D-03  0.88038723D-04  0.13946813D-04 -0.33147145D-03
 -0.20843814D-03 -0.33020103D-04  0.56094284D-03  0.35273591D-03  0.55879294D-04
  0.25892783D-01  0.25042372D-01  0.78046137D-02 -0.37443110D-03  0.50083185D-03
  0.37798527D-03  0.13855060D-03  0.87124333D-04  0.13801958D-04 -0.91894618D-03
 -0.57785802D-03 -0.91542419D-04  0.12551086D-02  0.78924599D-03  0.12502983D-03
 -0.72684547D+00 -0.70297329D+00 -0.21908607D+00  0.18405040D-02 -0.24618228D-02
 -0.18579744D-02  0.12526259D-02  0.78768476D-03  0.12478250D-03  0.24325793D-02
  0.15296711D-02  0.24232561D-03  0.14846044D-02  0.93355907D-03  0.14789144D-03
 -0.10325605D+01 -0.99864760D+00 -0.31123484D+00  0.23627862D-02 -0.31604174D-02
 -0.23852142D-02 -0.77966818D-03 -0.49027627D-03 -0.77667999D-04 -0.45713655D-03
 -0.28745973D-03 -0.45538451D-04  0.21630316D-03  0.13601723D-03  0.21547415D-04
  0.16328719D+01  0.15792426D+01  0.49218093D+00 -0.41585692D-02  0.55624223D-02
  0.41980431D-02  0.18728331D-02  0.11776877D-02  0.18656552D-03  0.16040488D-02
  0.10086689D-02  0.15979010D-03  0.37035491D-03  0.23288910D-03  0.36893547D-04
 -0.84329577D+00 -0.81559896D+00 -0.25418657D+00  0.20312465D-02 -0.27169562D-02
 -0.20505274D-02  0.70165471D-03  0.44121931D-03  0.69896551D-04 -0.56066393D-03
 -0.35256053D-03 -0.55851511D-04 -0.17400142D-03 -0.10941676D-03 -0.17333454D-04
  0.14750997D+01  0.14266522D+01  0.44462517D+00 -0.34379904D-02  0.45985899D-02
  0.34706244D-02 -0.17076535D-02 -0.10738184D-02 -0.17011087D-03 -0.11651417D-02
 -0.73267234D-03 -0.11606761D-03  0.42138761D-03  0.26497984D-03  0.41977258D-04
 -0.17607195D+00 -0.17028912D+00 -0.53071682D-01  0.94631244D-04 -0.12657693D-03
 -0.95529500D-04 -0.11545957D-02 -0.72604074D-03 -0.11501705D-03  0.11187113D-02
  0.70347570D-03  0.11144237D-03  0.34819386D-03  0.21895364D-03  0.34685936D-04
  0.56379113D-03  0.54527424D-03  0.16993816D-03  0.84355689D-03  0.81585150D-03
  0.25426528D-03 -0.12782814D-02 -0.12362981D-02 -0.38530013D-03 -0.12990213D-02
 -0.12563568D-02 -0.39155154D-03  0.66768057D-03  0.64575158D-03  0.20125256D-03
  0.70038467D-03  0.67738156D-03  0.21111025D-03  0.67279828D-03  0.65070121D-03
  0.20279515D-03 -0.11959773D-02 -0.11566972D-02 -0.36049199D-03 -0.11329975D-02
 -0.10957859D-02 -0.34150859D-03 -0.11986127D-02 -0.11592460D-02 -0.36128635D-03
  0.58415075D-04  0.56496517D-04  0.17607497D-04  0.63108126D-04  0.61035432D-04
  0.19022078D-04  0.19038698D-04  0.18413400D-04  0.57386524D-05
MO    7     MO 0.0        OCC NO =    2.0000000  ORB. ENERGY =    0.000000
  0.62616676D-01  0.60560123D-01  0.18873945D-01 -0.12457326D-03  0.16662679D-03
  0.12575573D-03 -0.19595139D-04 -0.12321949D-04 -0.19520038D-05 -0.84314622D-04
 -0.53019297D-04 -0.83991474D-05 -0.34200157D-03 -0.21505976D-03 -0.34069079D-04
  0.24468576D+00  0.23664941D+00  0.73753285D-01 -0.15772890D-03  0.21097515D-03
  0.15922609D-03  0.28516720D-03  0.17932079D-03  0.28407426D-04 -0.74014590D-03
 -0.46542360D-03 -0.73730918D-04  0.10643716D-02  0.66930545D-03  0.10602923D-03
  0.55011497D-03  0.53204725D-03  0.16581589D-03 -0.68518569D-03  0.91649122D-03
  0.69168960D-03  0.18285070D-03  0.11498143D-03  0.18214990D-04 -0.19596052D-02
 -0.12322523D-02 -0.19520947D-03  0.25666724D-02  0.16139925D-02  0.25568352D-03
  0.37634918D+00  0.36398855D+00  0.11343933D+00 -0.12764396D-02  0.17073411D-02
  0.12885558D-02  0.38873805D-02  0.24444892D-02  0.38724816D-03 -0.30572663D-03
 -0.19224911D-03 -0.30455489D-04 -0.10892766D-02 -0.68496639D-03 -0.10851018D-03
 -0.21207737D+01 -0.20511200D+01 -0.63924450D+00  0.54858910D-02 -0.73378225D-02
 -0.55379641D-02  0.52909049D-03  0.33270630D-03  0.52706267D-04 -0.15605760D-03
 -0.98133205D-04 -0.15545948D-04 -0.18347306D-03 -0.11537278D-03 -0.18276987D-04
 -0.91291937D-01 -0.88293587D-01 -0.27517254D-01  0.25806046D-03 -0.34517671D-03
 -0.26051001D-03 -0.42627804D-03 -0.26805507D-03 -0.42464427D-04 -0.48616178D-03
 -0.30571157D-03 -0.48429849D-04 -0.28284008D-03 -0.17785743D-03 -0.28175606D-04
  0.15141598D+01  0.14644294D+01  0.45639868D+00 -0.39684256D-02  0.53080899D-02
  0.40060946D-02 -0.13855367D-03 -0.87126263D-04 -0.13802264D-04  0.37717229D-03
  0.23717606D-03  0.37572672D-04  0.17142409D-03  0.10779607D-03  0.17076708D-04
 -0.37530659D+00 -0.36298019D+00 -0.11312507D+00  0.97989789D-03 -0.13106926D-02
 -0.98919925D-03  0.18851509D-03  0.11854335D-03  0.18779258D-04  0.70513688D-04
  0.44340899D-04  0.70243434D-05 -0.22861971D-04 -0.14376221D-04 -0.22774350D-05
 -0.28463343D+00 -0.27528506D+00 -0.85794329D-01  0.40438880D-04 -0.54090269D-04
 -0.40822733D-04 -0.22086591D-02 -0.13888641D-02 -0.22001941D-03  0.23174835D-02
  0.14572958D-02  0.23086014D-03  0.66875678D-03  0.42053221D-03  0.66619367D-04
 -0.30104771D-03 -0.29116024D-03 -0.90741929D-04  0.17755769D-02  0.17172607D-02
  0.53519514D-03  0.11661585D-03  0.11278577D-03  0.35150399D-04  0.52018395D-04
  0.50309927D-04  0.15679407D-04 -0.12074565D-02 -0.11677993D-02 -0.36395204D-03
 -0.12065475D-02 -0.11669202D-02 -0.36367807D-03 -0.11770179D-02 -0.11383605D-02
 -0.35477724D-03  0.29605749D-03  0.28633392D-03  0.89237775D-04  0.30867580D-03
  0.29853780D-03  0.93041192D-04  0.31000771D-03  0.29982596D-03  0.93442657D-04
  0.20409867D-03  0.19739535D-03  0.61519509D-04  0.14108065D-03  0.13644707D-03
  0.42524591D-04  0.62322402D-04  0.60275514D-04  0.18785245D-04
MO    8     MO 0.0        OCC NO =    2.0000000  ORB. ENERGY =    0.000000
  0.10143451D-04  0.98103047D-05  0.30574435D-05  0.15034126D-04 -0.20109358D-04
 -0.15176833D-04 -0.32199798D-04 -0.20248097D-04 -0.32076387D-05 -0.86381360D-04
 -0.54318917D-04 -0.86050291D-05  0.52505526D-04  0.33016884D-04  0.52304291D-05
 -0.67915744D-01 -0.65685151D-01 -0.20471192D-01  0.29638103D-04 -0.39643357D-04
 -0.29919433D-04 -0.66639232D-04 -0.41904537D-04 -0.66383828D-05  0.20716234D-03
  0.13026924D-03  0.20636836D-04 -0.29057036D-03 -0.18271844D-03 -0.28945671D-04
 -0.75448962D-01 -0.72970951D-01 -0.22741858D-01  0.33228452D-03 -0.44445739D-03
 -0.33543863D-03 -0.26283785D-03 -0.16527949D-03 -0.26183048D-04  0.67342619D-03
  0.42346846D-03  0.67084518D-04 -0.82560841D-03 -0.51916473D-03 -0.82244415D-04
 -0.87897946D+00 -0.85011067D+00 -0.26494236D+00  0.27997753D-02 -0.37449257D-02
 -0.28263513D-02  0.19700260D-04  0.12388052D-04  0.19624756D-05 -0.23068464D-02
 -0.14506069D-02 -0.22980051D-03 -0.10892860D-02 -0.68497224D-03 -0.10851111D-03
  0.64322946D+00  0.62210353D+00  0.19388250D+00 -0.19174620D-02  0.25647603D-02
  0.19356629D-02 -0.99741838D-03 -0.62720344D-03 -0.99359563D-04 -0.36325144D-03
 -0.22842225D-03 -0.36185923D-04  0.16727359D-03  0.10518612D-03  0.16663249D-04
 -0.76217246D+00 -0.73714002D+00 -0.22973435D+00  0.23269474D-02 -0.31124801D-02
 -0.23490351D-02  0.21715076D-02  0.13655023D-02  0.21631850D-03  0.19066698D-02
  0.11989652D-02  0.18993623D-03  0.44436902D-03  0.27943116D-03  0.44266591D-04
  0.15293581D+01  0.14791286D+01  0.46097977D+00 -0.44656577D-02  0.59731779D-02
  0.45080465D-02  0.89739877D-03  0.56430843D-03  0.89395936D-04 -0.95161004D-03
 -0.59839793D-03 -0.94796286D-04 -0.34562279D-03 -0.21733689D-03 -0.34429814D-04
  0.17498540D+01  0.16923826D+01  0.52744175D+00 -0.50087008D-02  0.66995419D-02
  0.50562442D-02  0.87182182D-03  0.54822496D-03  0.86848044D-04  0.48747407D-03
  0.30653678D-03  0.48560576D-04 -0.21264313D-03 -0.13371571D-03 -0.21182814D-04
  0.94956634D-01  0.91837923D-01  0.28621869D-01 -0.13083193D-04  0.17499827D-04
  0.13207381D-04  0.74439758D-03  0.46809717D-03  0.74154457D-04 -0.70013940D-03
 -0.44026644D-03 -0.69745601D-04 -0.21188903D-03 -0.13324151D-03 -0.21107693D-04
  0.71230628D-03  0.68891162D-03  0.21470366D-03 -0.56620443D-03 -0.54760828D-03
 -0.17066558D-03  0.57852297D-03  0.55952223D-03  0.17437864D-03  0.61777612D-03
  0.59748616D-03  0.18621034D-03 -0.12122907D-02 -0.11724748D-02 -0.36540918D-03
 -0.12099549D-02 -0.11702157D-02 -0.36470512D-03 -0.12324167D-02 -0.11919398D-02
 -0.37147556D-03 -0.13780790D-02 -0.13328180D-02 -0.41538116D-03 -0.13889423D-02
 -0.13433245D-02 -0.41865558D-03 -0.13720923D-02 -0.13270280D-02 -0.41357666D-03
 -0.18401810D-04 -0.17797429D-04 -0.55466814D-05  0.85777601D-05  0.82960362D-05
  0.25855121D-05 -0.28821913D-04 -0.27875300D-04 -0.86875133D-05
MO    9     MO 0.0        OCC NO =    2.0000000  ORB. ENERGY =    0.000000
 -0.22873332D-01 -0.22122091D-01 -0.68944895D-02  0.19454180D-04 -0.26021538D-04
 -0.19638843D-04 -0.13236954D-05 -0.83237520D-06 -0.13186222D-06  0.70222088D-04
  0.44157533D-04  0.69952951D-05 -0.27837798D-05 -0.17505154D-05 -0.27731106D-06
  0.63900583D-01  0.61801861D-01  0.19260941D-01 -0.37250646D-04  0.49825748D-04
  0.37604235D-04  0.78041740D-04  0.49074740D-04  0.77742633D-05 -0.18846452D-03
 -0.11851155D-03 -0.18774220D-04  0.30860396D-03  0.19405845D-03  0.30742119D-04
  0.81953901D-01  0.79262245D-01  0.24702580D-01 -0.35588795D-03  0.47602888D-03
  0.35926610D-03  0.31430059D-03  0.19764065D-03  0.31309599D-04 -0.76391562D-03
 -0.48037064D-03 -0.76098780D-04  0.82422779D-03  0.51829655D-03  0.82106882D-04