 opt lysine m062x
GAUSSIAN             40 MOL ORBITALS    192 PRIMITIVES       24 NUCLEI
  O    1    (CENTRE  1)   5.51752685 -3.03013388  0.78857542  CHARGE =  8.0
  O    2    (CENTRE  2)   6.90735709  0.45448949 -1.49038410  CHARGE =  8.0
  N    3    (CENTRE  3)   2.75418390  3.50133923  0.18599986  CHARGE =  7.0
  N    4    (CENTRE  4)  -9.07561206 -0.85932893 -0.65062143  CHARGE =  7.0
  C    5    (CENTRE  5)  -2.00667158  0.46588062  0.78413470  CHARGE =  6.0
  C    6    (CENTRE  6)   0.48030124 -0.61539647 -0.30190421  CHARGE =  6.0
  C    7    (CENTRE  7)  -4.35823976 -0.69772803 -0.50591858  CHARGE =  6.0
  C    8    (CENTRE  8)   2.81511510  0.74386908  0.85269423  CHARGE =  6.0
  C    9    (CENTRE  9)  -6.84226800  0.39620032  0.58582878  CHARGE =  6.0
  C   10    (CENTRE 10)   5.30619970 -0.54168172 -0.10396847  CHARGE =  6.0
  H   11    (CENTRE 11)  -1.99179703  2.52526635  0.52338732  CHARGE =  1.0
  H   12    (CENTRE 12)  -2.07994299  0.09320119  2.82477778  CHARGE =  1.0
  H   13    (CENTRE 13)   0.50828658 -0.36366497 -2.36339135  CHARGE =  1.0
  H   14    (CENTRE 14)   0.62280755 -2.64844428  0.09464370  CHARGE =  1.0
  H   15    (CENTRE 15)  -4.36406942 -2.75685214 -0.25032450  CHARGE =  1.0
  H   16    (CENTRE 16)  -4.28587382 -0.32047803 -2.54675203  CHARGE =  1.0
  H   17    (CENTRE 17)   2.74595260  0.56632844  2.92887370  CHARGE =  1.0
  H   18    (CENTRE 18)  -6.83315208  2.47422610  0.35534009  CHARGE =  1.0
  H   19    (CENTRE 19)  -6.93766678 -0.00574141  2.62516624  CHARGE =  1.0
  H   20    (CENTRE 20)   3.23912440  3.55076708 -1.74773803  CHARGE =  1.0
  H   21    (CENTRE 21)   4.38026374  4.27409538  1.04024812  CHARGE =  1.0
  H   22    (CENTRE 22)  -9.01977137 -0.25951208 -2.54937585  CHARGE =  1.0
  H   23    (CENTRE 23) -10.67395171  0.09444768  0.05879883  CHARGE =  1.0
  H   24    (CENTRE 24)   7.17409572 -3.61941902  0.00796773  CHARGE =  1.0
CENTRE ASSIGNMENTS    1  1  1  1  1  1  1  1  1  1  1  1  1  1  1  2  2  2  2  2
CENTRE ASSIGNMENTS    2  2  2  2  2  2  2  2  2  2  3  3  3  3  3  3  3  3  3  3
CENTRE ASSIGNMENTS    3  3  3  3  3  4  4  4  4  4  4  4  4  4  4  4  4  4  4  4
CENTRE ASSIGNMENTS    5  5  5  5  5  5  5  5  5  5  5  5  5  5  5  6  6  6  6  6
CENTRE ASSIGNMENTS    6  6  6  6  6  6  6  6  6  6  7  7  7  7  7  7  7  7  7  7
CENTRE ASSIGNMENTS    7  7  7  7  7  8  8  8  8  8  8  8  8  8  8  8  8  8  8  8
CENTRE ASSIGNMENTS    9  9  9  9  9  9  9  9  9  9  9  9  9  9  9 10 10 10 10 10
CENTRE ASSIGNMENTS   10 10 10 10 10 10 10 10 10 10 11 11 11 12 12 12 13 13 13 14
CENTRE ASSIGNMENTS   14 14 15 15 15 16 16 16 17 17 17 18 18 18 19 19 19 20 20 20
CENTRE ASSIGNMENTS   21 21 21 22 22 22 23 23 23 24 24 24
TYPE ASSIGNMENTS      1  1  1  1  1  1  2  2  2  3  3  3  4  4  4  1  1  1  1  1
TYPE ASSIGNMENTS      1  2  2  2  3  3  3  4  4  4  1  1  1  1  1  1  2  2  2  3
TYPE ASSIGNMENTS      3  3  4  4  4  1  1  1  1  1  1  2  2  2  3  3  3  4  4  4
TYPE ASSIGNMENTS      1  1  1  1  1  1  2  2  2  3  3  3  4  4  4  1  1  1  1  1
TYPE ASSIGNMENTS      1  2  2  2  3  3  3  4  4  4  1  1  1  1  1  1  2  2  2  3
TYPE ASSIGNMENTS      3  3  4  4  4  1  1  1  1  1  1  2  2  2  3  3  3  4  4  4
TYPE ASSIGNMENTS      1  1  1  1  1  1  2  2  2  3  3  3  4  4  4  1  1  1  1  1
TYPE ASSIGNMENTS      1  2  2  2  3  3  3  4  4  4  1  1  1  1  1  1  1  1  1  1
TYPE ASSIGNMENTS      1  1  1  1  1  1  1  1  1  1  1  1  1  1  1  1  1  1  1  1
TYPE ASSIGNMENTS      1  1  1  1  1  1  1  1  1  1  1  1
EXPONENTS  0.1307093D+03 0.2380887D+02 0.6443608D+01 0.5033151D+01 0.1169596D+01
EXPONENTS  0.3803890D+00 0.5033151D+01 0.1169596D+01 0.3803890D+00 0.5033151D+01
EXPONENTS  0.1169596D+01 0.3803890D+00 0.5033151D+01 0.1169596D+01 0.3803890D+00
EXPONENTS  0.1307093D+03 0.2380887D+02 0.6443608D+01 0.5033151D+01 0.1169596D+01
EXPONENTS  0.3803890D+00 0.5033151D+01 0.1169596D+01 0.3803890D+00 0.5033151D+01
EXPONENTS  0.1169596D+01 0.3803890D+00 0.5033151D+01 0.1169596D+01 0.3803890D+00
EXPONENTS  0.9910617D+02 0.1805231D+02 0.4885660D+01 0.3780456D+01 0.8784966D+00
EXPONENTS  0.2857144D+00 0.3780456D+01 0.8784966D+00 0.2857144D+00 0.3780456D+01
EXPONENTS  0.8784966D+00 0.2857144D+00 0.3780456D+01 0.8784966D+00 0.2857144D+00
EXPONENTS  0.9910617D+02 0.1805231D+02 0.4885660D+01 0.3780456D+01 0.8784966D+00
EXPONENTS  0.2857144D+00 0.3780456D+01 0.8784966D+00 0.2857144D+00 0.3780456D+01
EXPONENTS  0.8784966D+00 0.2857144D+00 0.3780456D+01 0.8784966D+00 0.2857144D+00
EXPONENTS  0.7161684D+02 0.1304510D+02 0.3530512D+01 0.2941249D+01 0.6834831D+00
EXPONENTS  0.2222899D+00 0.2941249D+01 0.6834831D+00 0.2222899D+00 0.2941249D+01
EXPONENTS  0.6834831D+00 0.2222899D+00 0.2941249D+01 0.6834831D+00 0.2222899D+00
EXPONENTS  0.7161684D+02 0.1304510D+02 0.3530512D+01 0.2941249D+01 0.6834831D+00
EXPONENTS  0.2222899D+00 0.2941249D+01 0.6834831D+00 0.2222899D+00 0.2941249D+01
EXPONENTS  0.6834831D+00 0.2222899D+00 0.2941249D+01 0.6834831D+00 0.2222899D+00
EXPONENTS  0.7161684D+02 0.1304510D+02 0.3530512D+01 0.2941249D+01 0.6834831D+00
EXPONENTS  0.2222899D+00 0.2941249D+01 0.6834831D+00 0.2222899D+00 0.2941249D+01
EXPONENTS  0.6834831D+00 0.2222899D+00 0.2941249D+01 0.6834831D+00 0.2222899D+00
EXPONENTS  0.7161684D+02 0.1304510D+02 0.3530512D+01 0.2941249D+01 0.6834831D+00
EXPONENTS  0.2222899D+00 0.2941249D+01 0.6834831D+00 0.2222899D+00 0.2941249D+01
EXPONENTS  0.6834831D+00 0.2222899D+00 0.2941249D+01 0.6834831D+00 0.2222899D+00
EXPONENTS  0.7161684D+02 0.1304510D+02 0.3530512D+01 0.2941249D+01 0.6834831D+00
EXPONENTS  0.2222899D+00 0.2941249D+01 0.6834831D+00 0.2222899D+00 0.2941249D+01
EXPONENTS  0.6834831D+00 0.2222899D+00 0.2941249D+01 0.6834831D+00 0.2222899D+00
EXPONENTS  0.7161684D+02 0.1304510D+02 0.3530512D+01 0.2941249D+01 0.6834831D+00
EXPONENTS  0.2222899D+00 0.2941249D+01 0.6834831D+00 0.2222899D+00 0.2941249D+01
EXPONENTS  0.6834831D+00 0.2222899D+00 0.2941249D+01 0.6834831D+00 0.2222899D+00
EXPONENTS  0.3425251D+01 0.6239137D+00 0.1688554D+00 0.3425251D+01 0.6239137D+00
EXPONENTS  0.1688554D+00 0.3425251D+01 0.6239137D+00 0.1688554D+00 0.3425251D+01
EXPONENTS  0.6239137D+00 0.1688554D+00 0.3425251D+01 0.6239137D+00 0.1688554D+00
EXPONENTS  0.3425251D+01 0.6239137D+00 0.1688554D+00 0.3425251D+01 0.6239137D+00
EXPONENTS  0.1688554D+00 0.3425251D+01 0.6239137D+00 0.1688554D+00 0.3425251D+01
EXPONENTS  0.6239137D+00 0.1688554D+00 0.3425251D+01 0.6239137D+00 0.1688554D+00
EXPONENTS  0.3425251D+01 0.6239137D+00 0.1688554D+00 0.3425251D+01 0.6239137D+00
EXPONENTS  0.1688554D+00 0.3425251D+01 0.6239137D+00 0.1688554D+00 0.3425251D+01
EXPONENTS  0.6239137D+00 0.1688554D+00
MO    1     MO 0.0        OCC NO =    2.0000000  ORB. ENERGY =  -19.429468
  0.42264901D+01  0.40876773D+01  0.12739505D+01 -0.63850661D-02  0.85405418D-02
  0.64456743D-02  0.41409227D-02  0.26039233D-02  0.41250520D-03  0.38698150D-02
  0.24334435D-02  0.38549833D-03 -0.41529123D-02 -0.26114627D-02 -0.41369957D-03
  0.37609479D-02  0.36374251D-02  0.11336265D-02 -0.53016389D-04  0.70913703D-04
  0.53519629D-04  0.46377274D-03  0.29163274D-03  0.46199526D-04 -0.93791218D-03
 -0.58978435D-03 -0.93431750D-04  0.10043854D-03  0.63158447D-04  0.10005359D-04
  0.76117659D-05  0.73617686D-05  0.22943417D-05 -0.14004861D-05  0.18732633D-05
  0.14137798D-05 -0.63632893D-04 -0.40014071D-04 -0.63389011D-05  0.33670758D-04
  0.21173076D-04  0.33541710D-05  0.11794106D-04  0.74164505D-05  0.11748904D-05
  0.21586347D-07  0.20877375D-07  0.65065659D-08  0.10325963D-07 -0.13811810D-07
 -0.10423979D-07 -0.49447224D-07 -0.31093741D-07 -0.49257710D-08  0.27945103D-07
  0.17572631D-07  0.27838000D-08 -0.95690976D-08 -0.60173054D-08 -0.95324227D-09
 -0.58674414D-06 -0.56747338D-06 -0.17685667D-06 -0.30690748D-06  0.41051355D-06
  0.30982070D-06  0.37785400D-05  0.23760473D-05  0.37640582D-06 -0.46900393D-06
 -0.29492226D-06 -0.46720641D-07  0.10906156D-05  0.68580835D-06  0.10864356D-06
 -0.41828387D-04 -0.40454595D-04 -0.12607930D-04 -0.17630468D-04  0.23582175D-04
  0.17797819D-04  0.15958565D-04  0.10035174D-04  0.15897401D-05 -0.70203343D-04
 -0.44145746D-04 -0.69934279D-05 -0.22626092D-04 -0.14227894D-04 -0.22539374D-05
  0.22988316D-06  0.22233298D-06  0.69291479D-07  0.15935497D-06 -0.21315015D-06
 -0.16086760D-06  0.99150605D-06  0.62348561D-06  0.98770596D-07  0.10745343D-05
  0.67569601D-06  0.10704160D-06  0.48458532D-06  0.30472025D-06  0.48272807D-07
 -0.54431053D-04 -0.52643345D-04 -0.16406631D-04 -0.45863656D-04  0.61346346D-04
  0.46299002D-04  0.96812730D-04  0.60878442D-04  0.96441681D-05 -0.23446833D-03
 -0.14743997D-03 -0.23356969D-04  0.80733726D-04  0.50767534D-04  0.80424303D-05
 -0.31507729D-07 -0.30472904D-07 -0.94970732D-08 -0.31190306D-07  0.41719554D-07
  0.31486370D-07  0.10179229D-07  0.64009724D-08  0.10140216D-08  0.64846485D-07
  0.40777210D-07  0.64597951D-08 -0.13046408D-06 -0.82039315D-07 -0.12996406D-07
  0.14607812D-02  0.14128040D-02  0.44030929D-03  0.73067785D-03 -0.97734065D-03
 -0.73761357D-03 -0.22675741D-03 -0.14259115D-03 -0.22588833D-04  0.38257645D-02
  0.24057434D-02  0.38111017D-03 -0.14324548D-02 -0.90076603D-03 -0.14269647D-03
  0.85805671D-06  0.82987509D-06  0.25863582D-06  0.95772836D-06  0.92627317D-06
  0.28867889D-06 -0.17364084D-05 -0.16793786D-05 -0.52338896D-06 -0.58550179D-04
 -0.56627184D-04 -0.17648220D-04  0.14537151D-05  0.14059700D-05  0.43817943D-06
 -0.38652445D-09 -0.37382962D-09 -0.11650637D-09 -0.25891902D-04 -0.25041521D-04
 -0.78043482D-05 -0.43159334D-07 -0.41741829D-07 -0.13009105D-07 -0.39969246D-07
 -0.38656514D-07 -0.12047547D-07 -0.15617830D-04 -0.15104885D-04 -0.47075330D-05
 -0.62926578D-05 -0.60859847D-05 -0.18967356D-05  0.57181005D-09  0.55302979D-09
  0.17235523D-09 -0.12112433D-09 -0.11714618D-09 -0.36509346D-10 -0.16152893D-02
 -0.15622375D-02 -0.48688118D-03
MO    2     MO 0.0        OCC NO =    2.0000000  ORB. ENERGY =  -19.376784
 -0.40813663D-02 -0.39473198D-02 -0.12302072D-02 -0.60361245D-04  0.80738041D-04
  0.60934204D-04  0.72181862D-03  0.45389892D-03  0.71905215D-04  0.11966589D-03
  0.75249125D-04  0.11920726D-04 -0.49125153D-03 -0.30891214D-03 -0.48936874D-04
  0.42267509D+01  0.40879294D+01  0.12740290D+01 -0.64170991D-02  0.85833885D-02
  0.64780113D-02 -0.65738157D-02 -0.41337917D-02 -0.65486206D-03 -0.41296401D-02
 -0.25968285D-02 -0.41138127D-03  0.57051151D-02  0.35875295D-02  0.56832494D-03
 -0.30367834D-04 -0.29370447D-04 -0.91534854D-05 -0.10947721D-04  0.14643461D-04
  0.11051639D-04  0.83656830D-04  0.52605660D-04  0.83336203D-05  0.89692302D-04
  0.56400926D-04  0.89348543D-05 -0.10518126D-03 -0.66140799D-04 -0.10477814D-04
  0.53639254D-09  0.51877551D-09  0.16167967D-09  0.16604258D-08 -0.22209537D-08
 -0.16761869D-08  0.15664151D-07  0.98500387D-08  0.15604116D-08 -0.33493534D-08
 -0.21061633D-08 -0.33365165D-09  0.12982183D-07  0.81635449D-08  0.12932427D-08
 -0.12576360D-05 -0.12163308D-05 -0.37907717D-06 -0.29129581D-06  0.38963167D-06
  0.29406084D-06  0.35520159D-05  0.22336029D-05  0.35384023D-06 -0.26157434D-05
 -0.16448497D-05 -0.26057182D-06  0.29191434D-05  0.18356357D-05  0.29079553D-06
 -0.93691047D-05 -0.90613902D-05 -0.28240395D-05 -0.33547171D-05  0.44872051D-05
  0.33865606D-05  0.17044127D-04  0.10717805D-04  0.16978803D-05  0.24388078D-05
  0.15335878D-05  0.24294608D-06  0.18712840D-04  0.11767136D-04  0.18641120D-05
 -0.30715955D-06 -0.29707135D-06 -0.92584163D-07 -0.17362201D-06  0.23223346D-06
  0.17527006D-06  0.51849203D-06  0.32604170D-06  0.51650484D-07  0.74108590D-06
  0.46601470D-06  0.73824558D-07 -0.28608935D-06 -0.17990066D-06 -0.28499288D-07
 -0.54381153D-04 -0.52595084D-04 -0.16391590D-04 -0.22977470D-04  0.30734222D-04
  0.23195576D-04  0.17878571D-03  0.11242525D-03  0.17810048D-04  0.30692610D-03
  0.19300337D-03  0.30574976D-04 -0.23223991D-03 -0.14603869D-03 -0.23134982D-04
 -0.40331805D-08 -0.39007166D-08 -0.12156830D-08 -0.70635789D-09  0.94481074D-09
  0.71306276D-09 -0.28381186D-07 -0.17846851D-07 -0.28272411D-08  0.12821242D-07
  0.80623410D-08  0.12772103D-08  0.12612683D-07  0.79311932D-08  0.12564343D-08
  0.16444028D-02  0.15903948D-02  0.49565660D-03  0.11900206D-02 -0.15917487D-02
 -0.12013165D-02 -0.40285558D-02 -0.25332640D-02 -0.40131158D-03 -0.24782326D-02
 -0.15583791D-02 -0.24687344D-03  0.34769489D-02  0.21863988D-02  0.34636230D-03
  0.27231901D-06  0.26337509D-06  0.82082511D-07  0.50619053D-06  0.48956544D-06
  0.15257617D-06  0.11382248D-04  0.11008415D-04  0.34308421D-05 -0.89340395D-05
 -0.86406140D-05 -0.26929020D-05  0.25434797D-06  0.24599428D-06  0.76665674D-07
 -0.39067899D-06 -0.37784771D-06 -0.11775863D-06  0.94046791D-05  0.90957962D-05
  0.28347624D-05  0.71686783D-08  0.69332336D-08  0.21607861D-08 -0.29120202D-07
 -0.28163792D-07 -0.87774238D-08 -0.59057319D-04 -0.57117668D-04 -0.17801082D-04
 -0.19842650D-04 -0.19190947D-04 -0.59809799D-05  0.12779330D-07  0.12359612D-07
  0.38519511D-08 -0.66413098D-09 -0.64231857D-09 -0.20018264D-09 -0.35074902D-04
 -0.33922918D-04 -0.10572292D-04
MO    3     MO 0.0        OCC NO =    2.0000000  ORB. ENERGY =  -14.546326
  0.28699406D-04  0.27756816D-04  0.86505871D-05  0.52612851D-05 -0.70373938D-05
 -0.53112261D-05  0.89632734D-04  0.56363468D-04  0.89289203D-05 -0.27505758D-04
 -0.17296359D-04 -0.27400338D-05 -0.42067568D-04 -0.26453215D-04 -0.41906338D-05
 -0.74193961D-04 -0.71757169D-04 -0.22363575D-04 -0.10417544D-04  0.13934307D-04
  0.10516429D-04 -0.28362872D-04 -0.17835335D-04 -0.28254168D-05  0.17653758D-03
  0.11101157D-03  0.17586098D-04 -0.81255439D-04 -0.51095600D-04 -0.80944015D-05
  0.34310479D+01  0.33183602D+01  0.10341879D+01 -0.62933048D-02  0.84178035D-02
  0.63530419D-02  0.55047190D-02  0.34615150D-02  0.54836214D-03 -0.26855278D-02
 -0.16887320D-02 -0.26752352D-03 -0.15811788D-02 -0.99428767D-03 -0.15751187D-03
  0.18329491D-04  0.17727486D-04  0.55248830D-05 -0.18705652D-06  0.25020321D-06
  0.18883209D-06  0.51094623D-07  0.32129670D-07  0.50898796D-08  0.54891606D-06
  0.34517315D-06  0.54681226D-07  0.47084280D-06  0.29607858D-06  0.46903822D-07
 -0.43407017D-04 -0.41981377D-04 -0.13083762D-04 -0.29768776D-04  0.39818143D-04
  0.30051346D-04 -0.37384413D-04 -0.23508322D-04 -0.37241131D-05  0.84095569D-04
  0.52881550D-04  0.83773260D-05  0.11149014D-04  0.70107992D-05  0.11106284D-05
 -0.55183001D-05 -0.53370596D-05 -0.16633284D-05 -0.38032730D-04  0.50871849D-04
  0.38393743D-04  0.10320175D-03  0.64896033D-04  0.10280622D-04  0.12613066D-03
  0.79314341D-04  0.12564724D-04  0.34803066D-05  0.21885102D-05  0.34669678D-06
  0.36973871D-05  0.35759518D-05  0.11144680D-05  0.30076421D-05 -0.40229643D-05
 -0.30361911D-05 -0.60985038D-05 -0.38349028D-05 -0.60751304D-06 -0.47790746D-06
 -0.30052104D-06 -0.47607581D-07 -0.95047287D-05 -0.59768285D-05 -0.94683005D-06
  0.14694061D-02  0.14211456D-02  0.44290901D-03  0.86990269D-03 -0.11635651D-02
 -0.87815996D-03 -0.53823723D-05 -0.33845801D-05 -0.53617436D-06 -0.39714620D-02
 -0.24973619D-02 -0.39562408D-03  0.97751006D-03  0.61468456D-03  0.97376361D-04
  0.43925624D-06  0.42482951D-06  0.13240080D-06  0.38351197D-06 -0.51297824D-06
 -0.38715233D-06  0.34229562D-05  0.21524467D-05  0.34098372D-06 -0.20298634D-05
 -0.12764326D-05 -0.20220837D-06 -0.30627977D-07 -0.19259694D-07 -0.30510591D-08
 -0.60764742D-04 -0.58769013D-04 -0.18315734D-04 -0.62724173D-04  0.83898648D-04
  0.63319561D-04 -0.85909319D-04 -0.54022085D-04 -0.85580059D-05  0.27093368D-03
  0.17037037D-03  0.26989529D-04 -0.32063765D-04 -0.20162556D-04 -0.31940875D-05
 -0.11211681D-03 -0.10843450D-03 -0.33794297D-04 -0.54976100D-05 -0.53170490D-05
 -0.16570919D-05  0.23525934D-04  0.22753259D-04  0.70911971D-05 -0.26446500D-04
 -0.25577904D-04 -0.79715154D-05  0.22571226D-05  0.21829907D-05  0.68034286D-06
  0.73890939D-06  0.71464099D-06  0.22272238D-06  0.93560026D-04  0.90487184D-04
  0.28200903D-04  0.34857902D-05  0.33713046D-05  0.10506884D-05  0.12993911D-06
  0.12567145D-06  0.39166300D-07 -0.19614895D-02 -0.18970672D-02 -0.59123299D-03
 -0.19628541D-02 -0.18983871D-02 -0.59164433D-03 -0.14024212D-06 -0.13563607D-06
 -0.42271838D-07 -0.95108272D-07 -0.91984580D-07 -0.28667576D-07 -0.21288179D-05
 -0.20589000D-05 -0.64166919D-06
MO    4     MO 0.0        OCC NO =    2.0000000  ORB. ENERGY =  -14.532608
  0.35892032D-07  0.34713211D-07  0.10818592D-07  0.15014414D-08 -0.20082991D-08
 -0.15156933D-08  0.16461357D-06  0.10351343D-06  0.16398267D-07  0.87001321D-07
  0.54708765D-07  0.86667876D-08 -0.12014768D-07 -0.75552084D-08 -0.11968719D-08
  0.22205719D-08  0.21476404D-08  0.66932572D-09  0.49195455D-08 -0.65802896D-08
 -0.49662427D-08 -0.26112645D-07 -0.16420332D-07 -0.26012564D-08  0.12421564D-07
  0.78110129D-08  0.12373957D-08 -0.18181493D-07 -0.11433011D-07 -0.18111810D-08
 -0.18848536D-04 -0.18229484D-04 -0.56813338D-05 -0.16238014D-07  0.21719656D-07
  0.16392149D-07 -0.85512862D-06 -0.53772782D-06 -0.85185121D-07 -0.57030839D-08
 -0.35862522D-08 -0.56812260D-09  0.41868532D-07  0.26328057D-07  0.41708065D-08
  0.34310615D+01  0.33183733D+01  0.10341920D+01 -0.62862392D-02  0.84083528D-02
  0.63459093D-02 -0.16050833D-03 -0.10093195D-03 -0.15989316D-04  0.61949853D-02
  0.38955730D-02  0.61712421D-03 -0.94991343D-03 -0.59733105D-03 -0.94627275D-04
  0.24071306D-04  0.23280719D-04  0.72555832D-05  0.78396315D-05 -0.10486140D-04
 -0.79140467D-05  0.91396767D-04  0.57472740D-04  0.91046476D-05 -0.26137539D-04
 -0.16435986D-04 -0.26037364D-05 -0.15643000D-04 -0.98367381D-05 -0.15583046D-05
  0.40346101D-05  0.39020992D-05  0.12161139D-05  0.32346459D-05 -0.43266002D-05
 -0.32653497D-05  0.88361720D-05  0.55564221D-05  0.88023061D-06 -0.62855870D-05
 -0.39525458D-05 -0.62614965D-06 -0.81141637D-05 -0.51024039D-05 -0.80830650D-06
 -0.18721485D-04 -0.18106605D-04 -0.56430380D-05 -0.45555938D-04  0.60934747D-04
  0.45988362D-04 -0.17968652D-03 -0.11299171D-03 -0.17899785D-04 -0.14144966D-04
 -0.88947340D-05 -0.14090753D-05  0.82617182D-05  0.51951901D-05  0.82300540D-06
 -0.22232126D-06 -0.21501945D-06 -0.67012169D-07 -0.22408092D-06  0.29972633D-06
  0.22620793D-06 -0.10693883D-05 -0.67246007D-06 -0.10652897D-06 -0.25456698D-06
 -0.16007855D-06 -0.25359131D-07 -0.58425022D-06 -0.36739221D-06 -0.58201099D-07
  0.14639564D-02  0.14158749D-02  0.44126637D-03  0.86544140D-03 -0.11575978D-02
 -0.87365632D-03  0.31843893D-02  0.20024294D-02  0.31721846D-03  0.16980534D-02
  0.10677816D-02  0.16915454D-03  0.17697605D-02  0.11128729D-02  0.17629776D-03
  0.10302346D-06  0.99639809D-07  0.31053376D-07  0.40462233D-07 -0.54121506D-07
 -0.40846308D-07  0.25341056D-06  0.15935136D-06  0.25243933D-07  0.12012758D-06
  0.75539448D-07  0.11966718D-07  0.58209800D-07  0.36603884D-07  0.57986703D-08
 -0.61032083D-05 -0.59027574D-05 -0.18396316D-05 -0.56711701D-05 -0.54849088D-05
 -0.17094065D-05 -0.71341319D-06 -0.68998218D-06 -0.21503731D-06  0.12713701D-05
  0.12296138D-05  0.38321690D-06 -0.33903431D-04 -0.32789922D-04 -0.10219187D-04
  0.32279423D-04  0.31219252D-04  0.97296773D-05  0.16173521D-06  0.15642325D-06
  0.48750295D-07  0.11562084D-03  0.11182345D-03  0.34850484D-04  0.86824032D-04
  0.83972423D-04  0.26170537D-04  0.74777599D-07  0.72321639D-07  0.22539496D-07
  0.56896411D-07  0.55027731D-07  0.17149740D-07 -0.19661555D-02 -0.19015800D-02
 -0.59263944D-03 -0.19655748D-02 -0.19010184D-02 -0.59246440D-03 -0.84086592D-08
 -0.81324891D-08 -0.25345416D-08
MO    5     MO 0.0        OCC NO =    2.0000000  ORB. ENERGY =  -10.481993
  0.21580382D-02  0.20871606D-02  0.65047678D-03  0.11734688D-02 -0.15696093D-02
 -0.11846076D-02  0.90389352D-03  0.56839250D-03  0.90042921D-04 -0.53180189D-02
 -0.33441130D-02 -0.52976368D-03  0.16272981D-02  0.10232887D-02  0.16210612D-03
  0.16822071D-02  0.16269575D-02  0.50705158D-03  0.16233104D-02 -0.21713088D-02
 -0.16387191D-02  0.29503070D-02  0.18552322D-02  0.29389995D-03  0.19803571D-02
  0.12453017D-02  0.19727671D-03 -0.26024518D-02 -0.16364915D-02 -0.25924775D-03
 -0.10993344D-03 -0.10632284D-03 -0.33136185D-04 -0.99604616D-04  0.13322922D-03
  0.10055008D-03  0.60665241D-04  0.38147932D-04  0.60432733D-05 -0.67391886D-04
 -0.42377827D-04 -0.67133597D-05 -0.38646297D-04 -0.24301829D-04 -0.38498180D-05
  0.19912250D-06  0.19258262D-06  0.60019590D-07  0.71312421D-07 -0.95386125D-07
 -0.71989331D-07 -0.42952584D-06 -0.27009738D-06 -0.42787962D-07 -0.56493722D-07
 -0.35524768D-07 -0.56277201D-08 -0.19086464D-06 -0.12002081D-06 -0.19013312D-07
 -0.25939744D-03 -0.25087791D-03 -0.78187686D-04  0.23743715D-04 -0.31759137D-04
 -0.23969095D-04 -0.10787472D-03 -0.67834518D-04 -0.10746127D-04  0.60197021D-05
  0.37853502D-05  0.59966307D-06  0.93829432D-05  0.59002465D-05  0.93469817D-06
 -0.90896204D-03 -0.87910851D-03 -0.27397972D-03 -0.30583488D-04  0.40907886D-04
  0.30873792D-04 -0.21032041D-03 -0.13225512D-03 -0.20951433D-04  0.98694833D-04
  0.62061960D-04  0.98316571D-05  0.83053525D-04  0.52226285D-04  0.82735211D-05
 -0.12833819D-04 -0.12412311D-04 -0.38683752D-05  0.17606217D-05 -0.23549737D-05
 -0.17773338D-05  0.14157280D-05  0.89024773D-06  0.14103020D-06 -0.25364007D-05
 -0.15949568D-05 -0.25266795D-06 -0.39525208D-05 -0.24854512D-05 -0.39373722D-06
 -0.16218368D-01 -0.15685700D-01 -0.48885475D-02  0.97023943D-03 -0.12977736D-02
 -0.97944911D-03 -0.34095306D-02 -0.21440043D-02 -0.33964630D-03  0.15623836D-02
  0.98246874D-03  0.15563955D-03  0.13791022D-02  0.86721650D-03  0.13738166D-03
 -0.12107901D-05 -0.11710235D-05 -0.36495688D-06 -0.19410369D-06  0.25962937D-06
  0.19594616D-06  0.29133513D-07  0.18319935D-07  0.29021854D-08 -0.91799902D-06
 -0.57726242D-06 -0.91448066D-07 -0.79860884D-06 -0.50218667D-06 -0.79554805D-07
  0.26861694D+01  0.25979461D+01  0.80966634D+00 -0.55196500D-02  0.73829778D-02
  0.55720435D-02  0.50902837D-03  0.32009070D-03  0.50707744D-04  0.17200553D-03
  0.10816169D-03  0.17134630D-04 -0.43732100D-03 -0.27499918D-03 -0.43564490D-04
 -0.16148462D-05 -0.15618089D-05 -0.48674763D-06  0.28844601D-05  0.27897242D-05
  0.86943518D-06 -0.54204539D-04 -0.52424270D-04 -0.16338355D-04 -0.59395553D-04
 -0.57444793D-04 -0.17903033D-04  0.18458543D-05  0.17852299D-05  0.55637819D-06
  0.19681187D-05  0.19034787D-05  0.59323118D-06 -0.24508565D-04 -0.23703617D-04
 -0.73873822D-05 -0.75751978D-09 -0.73264015D-09 -0.22833193D-09 -0.17103970D-06
 -0.16542215D-06 -0.51554860D-07 -0.12455763D-03 -0.12046672D-03 -0.37544215D-04
 -0.97963401D-04 -0.94745936D-04 -0.29528170D-04 -0.82170245D-07 -0.79471483D-07
 -0.24767790D-07  0.13759624D-07  0.13307709D-07  0.41474317D-08 -0.44190860D-03
 -0.42739476D-03 -0.13320028D-03
MO    6     MO 0.0        OCC NO =    2.0000000  ORB. ENERGY =  -10.424923
 -0.35661301D-04 -0.34490058D-04 -0.10749044D-04 -0.53233697D-04  0.71204370D-04
  0.53739001D-04 -0.88596603D-05 -0.55711922D-05 -0.88257044D-06  0.15722395D-03
  0.98866638D-04  0.15662137D-04 -0.22091321D-04 -0.13891616D-04 -0.22006653D-05
 -0.88153735D-04 -0.85258455D-04 -0.26571336D-04 -0.36461686D-04  0.48770450D-04
  0.36807786D-04 -0.37352560D-03 -0.23488292D-03 -0.37209401D-04  0.34576104D-03
  0.21742382D-03  0.34443586D-04  0.93451615D-04  0.58764883D-04  0.93093448D-05
  0.22383080D-02  0.21647940D-02  0.67467174D-03  0.10667558D-02 -0.14268720D-02
 -0.10768816D-02  0.77405551D-04  0.48674688D-04  0.77108883D-05  0.50517746D-02
  0.31766914D-02  0.50324129D-03 -0.13332083D-02 -0.83835719D-03 -0.13280986D-03
 -0.50592427D-06 -0.48930793D-06 -0.15249591D-06 -0.27778513D-06  0.37156005D-06
  0.28042191D-06  0.47442439D-06  0.29833079D-06  0.47260609D-07  0.85797875D-06
  0.53952006D-06  0.85469042D-07  0.89537680D-06  0.56303696D-06  0.89194514D-07
 -0.13523092D-02 -0.13078946D-02 -0.40761363D-03 -0.30557916D-04  0.40873681D-04
  0.30847977D-04 -0.22813368D-04 -0.14345658D-04 -0.22725932D-05 -0.84111748D-04
 -0.52891724D-04 -0.83789377D-05 -0.11466556D-03 -0.72104780D-04 -0.11422609D-04
 -0.23693093D-01 -0.22914928D-01 -0.71415823D-02  0.10842757D-02 -0.14503063D-02
 -0.10945678D-02 -0.34110558D-02 -0.21449634D-02 -0.33979825D-03 -0.20208804D-02
 -0.12707838D-02 -0.20131351D-03 -0.16775653D-02 -0.10548981D-02 -0.16711358D-03
 -0.51710444D-03 -0.50012090D-03 -0.15586584D-03  0.17936218D-04 -0.23991140D-04
 -0.18106472D-04 -0.92928471D-04 -0.58435917D-04 -0.92572310D-05  0.57023391D-05
  0.35857838D-05  0.56804841D-06 -0.56580698D-05 -0.35579461D-05 -0.56363844D-06
  0.26841655D+01  0.25960080D+01  0.80906231D+00 -0.63373212D-02  0.84766791D-02
  0.63974762D-02  0.49346215D-05  0.31030224D-05  0.49157089D-06 -0.23262860D-03
 -0.14628311D-03 -0.23173702D-04  0.35318179D-03  0.22209019D-03  0.35182817D-04
 -0.64677386D-04 -0.62553152D-04 -0.19495085D-04  0.18578394D-05 -0.24850103D-05
 -0.18754744D-05 -0.24038508D-05 -0.15116059D-05 -0.23946377D-06  0.32992576D-05
  0.20746617D-05  0.32866127D-06  0.53410689D-05  0.33586074D-05  0.53205984D-06
  0.19746525D-01  0.19097979D-01  0.59520058D-02  0.98852231D-03 -0.13222284D-02
 -0.99790553D-03  0.36294687D-02  0.22823073D-02  0.36155582D-03 -0.19602685D-02
 -0.12326695D-02 -0.19527555D-03 -0.13693740D-02 -0.86109911D-03 -0.13641257D-03
 -0.34861249D-04 -0.33716282D-04 -0.10507892D-04  0.14842961D-04  0.14355466D-04
  0.44739716D-05  0.30208157D-04  0.29216015D-04  0.91053556D-05  0.43356338D-04
  0.41932362D-04  0.13068486D-04 -0.17955383D-05 -0.17365665D-05 -0.54121192D-06
 -0.17614588D-06 -0.17036062D-06 -0.53093965D-07 -0.22717277D-02 -0.21971161D-02
 -0.68474513D-03  0.14883896D-05  0.14395056D-05  0.44863103D-06 -0.99872950D-07
 -0.96592769D-07 -0.30103747D-07 -0.14883263D-03 -0.14394444D-03 -0.44861195D-04
 -0.12806988D-03 -0.12386361D-03 -0.38602878D-04 -0.65465475D-07 -0.63315357D-07
 -0.19732631D-07 -0.13759516D-06 -0.13307605D-06 -0.41473991D-07 -0.38003674D-04
 -0.36755499D-04 -0.11455084D-04
MO    7     MO 0.0        OCC NO =    2.0000000  ORB. ENERGY =  -10.400379
  0.57241785D-07  0.55361763D-07  0.17253843D-07  0.12002039D-07 -0.16053697D-07
 -0.12115965D-07  0.12265217D-06  0.77126979D-07  0.12218209D-07 -0.20730982D-07
 -0.13036198D-07 -0.20651527D-08 -0.87506636D-07 -0.55026521D-07 -0.87171254D-08
  0.14105319D-07  0.13642051D-07  0.42516313D-08  0.53343313D-08 -0.71350991D-08
 -0.53849657D-08  0.16645863D-07  0.10467366D-07  0.16582066D-08 -0.23586697D-06
 -0.14831948D-06 -0.23496298D-07 -0.28229608D-06 -0.17751535D-06 -0.28121414D-07
  0.56377347D-06  0.54525715D-06  0.16993284D-06  0.20626337D-06 -0.27589392D-06
 -0.20822126D-06  0.53405673D-06  0.33582920D-06  0.53200988D-07  0.52628957D-07
  0.33094501D-07  0.52427249D-08 -0.59989082D-06 -0.37722745D-06 -0.59759166D-07
  0.22447075D-02  0.21709834D-02  0.67660070D-03  0.10531491D-02 -0.14086720D-02
 -0.10631458D-02 -0.41123213D-02 -0.25859380D-02 -0.40965603D-03 -0.21203562D-02
 -0.13333369D-02 -0.21122297D-03 -0.23289412D-02 -0.14645007D-02 -0.23200152D-03
 -0.23167915D-02 -0.22406999D-02 -0.69832829D-03 -0.28578271D-04  0.38225746D-04
  0.28849541D-04 -0.24743845D-04 -0.15559594D-04 -0.24649010D-05 -0.10154726D-03
 -0.63855639D-04 -0.10115806D-04 -0.10441753D-03 -0.65660542D-04 -0.10401733D-04
 -0.18033256D-02 -0.17440980D-02 -0.54355916D-03  0.19027343D-04 -0.25450609D-04
 -0.19207954D-04  0.85886341D-04  0.54007636D-04  0.85557169D-05  0.92052606D-05
  0.57885149D-05  0.91699801D-06  0.89194629D-05  0.56087976D-05  0.88852778D-06
 -0.36335856D-01 -0.35142458D-01 -0.10952369D-01  0.11230871D-02 -0.15022197D-02
 -0.11337476D-02  0.37076809D-02  0.23314892D-02  0.36934707D-03 -0.15836631D-02
 -0.99584985D-03 -0.15775935D-03 -0.15988961D-02 -0.10054288D-02 -0.15927681D-03
  0.42451174D-04  0.41056928D-04  0.12795651D-04  0.90869761D-06 -0.12154565D-05
 -0.91732312D-06  0.11780226D-05  0.74077221D-06  0.11735076D-06  0.44499376D-05
  0.27982402D-05  0.44328826D-06  0.32684386D-05  0.20552819D-05  0.32559119D-06
  0.26840573D+01  0.25959033D+01  0.80902968D+00 -0.64231514D-02  0.85914839D-02
  0.64841211D-02  0.31098032D-03  0.19555277D-03  0.30978844D-04  0.15585371D-03
  0.98004996D-04  0.15525638D-04  0.43522990D-03  0.27368424D-03  0.43356182D-04
  0.19815379D-06  0.19164572D-06  0.59727600D-07 -0.83449615D-07  0.11162060D-06
  0.84241733D-07 -0.22839240D-06 -0.14361927D-06 -0.22751705D-07  0.45398363D-06
  0.28547709D-06  0.45224367D-07  0.33725068D-06  0.21207228D-06  0.33595811D-07
  0.13634547D-04  0.13186740D-04  0.41097310D-05  0.92228009D-05  0.89198915D-05
  0.27799406D-05 -0.12867680D-05 -0.12445060D-05 -0.38785816D-06  0.67131436D-06
  0.64926602D-06  0.20234786D-06  0.48552532D-04  0.46957895D-04  0.14634725D-04
  0.47763052D-04  0.46194344D-04  0.14396759D-04  0.29880400D-07  0.28899022D-07
  0.90065629D-08 -0.22373926D-02 -0.21639087D-02 -0.67439583D-03 -0.22674145D-02
 -0.21929446D-02 -0.68344504D-03  0.79484355D-07  0.76873807D-07  0.23958208D-07
 -0.45615684D-07 -0.44117504D-07 -0.13749499D-07 -0.13697903D-03 -0.13248016D-03
 -0.41288278D-04 -0.11858073D-03 -0.11468612D-03 -0.35742653D-04  0.80849406D-08
  0.78194025D-08  0.24369662D-08
MO    8     MO 0.0        OCC NO =    2.0000000  ORB. ENERGY =  -10.386092
 -0.83001457D-04 -0.80275396D-04 -0.25018335D-04 -0.28240610D-04  0.37774098D-04
  0.28508675D-04 -0.12593188D-03 -0.79189345D-04 -0.12544923D-04  0.52223771D-04
  0.32839709D-04  0.52023616D-05 -0.56282519D-05 -0.35391958D-05 -0.56066808D-06
 -0.18467293D-04 -0.17860761D-04 -0.55664192D-05 -0.14642411D-05  0.19585407D-05
  0.14781399D-05 -0.50180565D-04 -0.31554886D-04 -0.49988241D-05 -0.25344187D-04
 -0.15937105D-04 -0.25247052D-05 -0.35739440D-04 -0.22473919D-04 -0.35602464D-05
  0.60974434D-04  0.58971818D-04  0.18378940D-04 -0.29515452D-04  0.39479302D-04
  0.29795618D-04  0.12921044D-03  0.81250995D-04  0.12871523D-04 -0.40129067D-04
 -0.25234234D-04 -0.39975267D-05  0.80997198D-04  0.50933212D-04  0.80686765D-05
  0.53457400D-05  0.51701670D-05  0.16113152D-05  0.24536358D-05 -0.32819361D-05
 -0.24769261D-05 -0.52761873D-05 -0.33178081D-05 -0.52559655D-06 -0.89342999D-05
 -0.56181275D-05 -0.89000579D-06 -0.80492881D-05 -0.50616083D-05 -0.80184380D-06