 opt lysine pbe0
GAUSSIAN             64 MOL ORBITALS    192 PRIMITIVES       24 NUCLEI
  O    1    (CENTRE  1)   5.58577620 -2.97241817  0.88989575  CHARGE =  8.0
  O    2    (CENTRE  2)   6.81769716  0.40265893 -1.62733782  CHARGE =  8.0
  N    3    (CENTRE  3)   2.77176967  3.49820444  0.24158576  CHARGE =  7.0
  N    4    (CENTRE  4)  -9.06434197 -0.86679510 -0.65311429  CHARGE =  7.0
  C    5    (CENTRE  5)  -2.00894593  0.45772782  0.78013437  CHARGE =  6.0
  C    6    (CENTRE  6)   0.47530327 -0.58711483 -0.32666711  CHARGE =  6.0
  C    7    (CENTRE  7)  -4.35592203 -0.68415586 -0.51955048  CHARGE =  6.0
  C    8    (CENTRE  8)   2.81342480  0.73464229  0.85014357  CHARGE =  6.0
  C    9    (CENTRE  9)  -6.83884726  0.37280617  0.58915711  CHARGE =  6.0
  C   10    (CENTRE 10)   5.28651707 -0.54713347 -0.12521458  CHARGE =  6.0
  H   11    (CENTRE 11)  -2.00598977  2.51931981  0.56316943  CHARGE =  1.0
  H   12    (CENTRE 12)  -2.07576159  0.04857224  2.81149406  CHARGE =  1.0
  H   13    (CENTRE 13)   0.50067559 -0.29406840 -2.38001944  CHARGE =  1.0
  H   14    (CENTRE 14)   0.61519887 -2.62691277  0.01972683  CHARGE =  1.0
  H   15    (CENTRE 15)  -4.35373668 -2.74549714 -0.30548337  CHARGE =  1.0
  H   16    (CENTRE 16)  -4.28830694 -0.27373200 -2.55157623  CHARGE =  1.0
  H   17    (CENTRE 17)   2.73973717  0.51751087  2.91941582  CHARGE =  1.0
  H   18    (CENTRE 18)  -6.84249598  2.45267391  0.39909618  CHARGE =  1.0
  H   19    (CENTRE 19)  -6.92910963 -0.06124891  2.61952967  CHARGE =  1.0
  H   20    (CENTRE 20)   3.38076321  3.59477619 -1.64696791  CHARGE =  1.0
  H   21    (CENTRE 21)   4.32516722  4.26240027  1.21208520  CHARGE =  1.0
  H   22    (CENTRE 22)  -9.03263074 -0.22729509 -2.53119292  CHARGE =  1.0
  H   23    (CENTRE 23) -10.65626320  0.05842104  0.08621614  CHARGE =  1.0
  H   24    (CENTRE 24)   7.21379229 -3.56734424  0.07672560  CHARGE =  1.0
CENTRE ASSIGNMENTS    1  1  1  1  1  1  1  1  1  1  1  1  1  1  1  2  2  2  2  2
CENTRE ASSIGNMENTS    2  2  2  2  2  2  2  2  2  2  3  3  3  3  3  3  3  3  3  3
CENTRE ASSIGNMENTS    3  3  3  3  3  4  4  4  4  4  4  4  4  4  4  4  4  4  4  4
CENTRE ASSIGNMENTS    5  5  5  5  5  5  5  5  5  5  5  5  5  5  5  6  6  6  6  6
CENTRE ASSIGNMENTS    6  6  6  6  6  6  6  6  6  6  7  7  7  7  7  7  7  7  7  7
CENTRE ASSIGNMENTS    7  7  7  7  7  8  8  8  8  8  8  8  8  8  8  8  8  8  8  8
CENTRE ASSIGNMENTS    9  9  9  9  9  9  9  9  9  9  9  9  9  9  9 10 10 10 10 10
CENTRE ASSIGNMENTS   10 10 10 10 10 10 10 10 10 10 11 11 11 12 12 12 13 13 13 14
CENTRE ASSIGNMENTS   14 14 15 15 15 16 16 16 17 17 17 18 18 18 19 19 19 20 20 20
CENTRE ASSIGNMENTS   21 21 21 22 22 22 23 23 23 24 24 24
TYPE ASSIGNMENTS      1  1  1  1  1  1  2  2  2  3  3  3  4  4  4  1  1  1  1  1
TYPE ASSIGNMENTS      1  2  2  2  3  3  3  4  4  4  1  1  1  1  1  1  2  2  2  3
TYPE ASSIGNMENTS      3  3  4  4  4  1  1  1  1  1  1  2  2  2  3  3  3  4  4  4
TYPE ASSIGNMENTS      1  1  1  1  1  1  2  2  2  3  3  3  4  4  4  1  1  1  1  1
TYPE ASSIGNMENTS      1  2  2  2  3  3  3  4  4  4  1  1  1  1  1  1  2  2  2  3
TYPE ASSIGNMENTS      3  3  4  4  4  1  1  1  1  1  1  2  2  2  3  3  3  4  4  4
TYPE ASSIGNMENTS      1  1  1  1  1  1  2  2  2  3  3  3  4  4  4  1  1  1  1  1
TYPE ASSIGNMENTS      1  2  2  2  3  3  3  4  4  4  1  1  1  1  1  1  1  1  1  1
TYPE ASSIGNMENTS      1  1  1  1  1  1  1  1  1  1  1  1  1  1  1  1  1  1  1  1
TYPE ASSIGNMENTS      1  1  1  1  1  1  1  1  1  1  1  1
EXPONENTS  0.1307093D+03 0.2380887D+02 0.6443608D+01 0.5033151D+01 0.1169596D+01
EXPONENTS  0.3803890D+00 0.5033151D+01 0.1169596D+01 0.3803890D+00 0.5033151D+01
EXPONENTS  0.1169596D+01 0.3803890D+00 0.5033151D+01 0.1169596D+01 0.3803890D+00
EXPONENTS  0.1307093D+03 0.2380887D+02 0.6443608D+01 0.5033151D+01 0.1169596D+01
EXPONENTS  0.3803890D+00 0.5033151D+01 0.1169596D+01 0.3803890D+00 0.5033151D+01
EXPONENTS  0.1169596D+01 0.3803890D+00 0.5033151D+01 0.1169596D+01 0.3803890D+00
EXPONENTS  0.9910617D+02 0.1805231D+02 0.4885660D+01 0.3780456D+01 0.8784966D+00
EXPONENTS  0.2857144D+00 0.3780456D+01 0.8784966D+00 0.2857144D+00 0.3780456D+01
EXPONENTS  0.8784966D+00 0.2857144D+00 0.3780456D+01 0.8784966D+00 0.2857144D+00
EXPONENTS  0.9910617D+02 0.1805231D+02 0.4885660D+01 0.3780456D+01 0.8784966D+00
EXPONENTS  0.2857144D+00 0.3780456D+01 0.8784966D+00 0.2857144D+00 0.3780456D+01
EXPONENTS  0.8784966D+00 0.2857144D+00 0.3780456D+01 0.8784966D+00 0.2857144D+00
EXPONENTS  0.7161684D+02 0.1304510D+02 0.3530512D+01 0.2941249D+01 0.6834831D+00
EXPONENTS  0.2222899D+00 0.2941249D+01 0.6834831D+00 0.2222899D+00 0.2941249D+01
EXPONENTS  0.6834831D+00 0.2222899D+00 0.2941249D+01 0.6834831D+00 0.2222899D+00
EXPONENTS  0.7161684D+02 0.1304510D+02 0.3530512D+01 0.2941249D+01 0.6834831D+00
EXPONENTS  0.2222899D+00 0.2941249D+01 0.6834831D+00 0.2222899D+00 0.2941249D+01
EXPONENTS  0.6834831D+00 0.2222899D+00 0.2941249D+01 0.6834831D+00 0.2222899D+00
EXPONENTS  0.7161684D+02 0.1304510D+02 0.3530512D+01 0.2941249D+01 0.6834831D+00
EXPONENTS  0.2222899D+00 0.2941249D+01 0.6834831D+00 0.2222899D+00 0.2941249D+01
EXPONENTS  0.6834831D+00 0.2222899D+00 0.2941249D+01 0.6834831D+00 0.2222899D+00
EXPONENTS  0.7161684D+02 0.1304510D+02 0.3530512D+01 0.2941249D+01 0.6834831D+00
EXPONENTS  0.2222899D+00 0.2941249D+01 0.6834831D+00 0.2222899D+00 0.2941249D+01
EXPONENTS  0.6834831D+00 0.2222899D+00 0.2941249D+01 0.6834831D+00 0.2222899D+00
EXPONENTS  0.7161684D+02 0.1304510D+02 0.3530512D+01 0.2941249D+01 0.6834831D+00
EXPONENTS  0.2222899D+00 0.2941249D+01 0.6834831D+00 0.2222899D+00 0.2941249D+01
EXPONENTS  0.6834831D+00 0.2222899D+00 0.2941249D+01 0.6834831D+00 0.2222899D+00
EXPONENTS  0.7161684D+02 0.1304510D+02 0.3530512D+01 0.2941249D+01 0.6834831D+00
EXPONENTS  0.2222899D+00 0.2941249D+01 0.6834831D+00 0.2222899D+00 0.2941249D+01
EXPONENTS  0.6834831D+00 0.2222899D+00 0.2941249D+01 0.6834831D+00 0.2222899D+00
EXPONENTS  0.3425251D+01 0.6239137D+00 0.1688554D+00 0.3425251D+01 0.6239137D+00
EXPONENTS  0.1688554D+00 0.3425251D+01 0.6239137D+00 0.1688554D+00 0.3425251D+01
EXPONENTS  0.6239137D+00 0.1688554D+00 0.3425251D+01 0.6239137D+00 0.1688554D+00
EXPONENTS  0.3425251D+01 0.6239137D+00 0.1688554D+00 0.3425251D+01 0.6239137D+00
EXPONENTS  0.1688554D+00 0.3425251D+01 0.6239137D+00 0.1688554D+00 0.3425251D+01
EXPONENTS  0.6239137D+00 0.1688554D+00 0.3425251D+01 0.6239137D+00 0.1688554D+00
EXPONENTS  0.3425251D+01 0.6239137D+00 0.1688554D+00 0.3425251D+01 0.6239137D+00
EXPONENTS  0.1688554D+00 0.3425251D+01 0.6239137D+00 0.1688554D+00 0.3425251D+01
EXPONENTS  0.6239137D+00 0.1688554D+00
MO    1     MO 0.0        OCC NO =    2.0000006  ORB. ENERGY =    0.000000
 -0.10763846D-02 -0.10410323D-02 -0.32444430D-03 -0.20357633D-05  0.27229978D-05
  0.20550871D-05 -0.13580397D-04 -0.85397180D-05 -0.13528348D-05 -0.16377552D-05
 -0.10298644D-05 -0.16314782D-06 -0.94557867D-05 -0.59460524D-05 -0.94195460D-06
 -0.14672842D-01 -0.14190934D-01 -0.44226944D-02 -0.21138468D-05  0.28274408D-05
  0.21339118D-05  0.53908549D-04  0.33899142D-04  0.53701937D-05  0.26290982D-04
  0.16532475D-04  0.26190218D-05 -0.62238886D-04 -0.39137482D-04 -0.62000347D-05
 -0.11910739D-01 -0.11519548D-01 -0.35901400D-02  0.88282169D-05 -0.11808453D-04
 -0.89120159D-05 -0.84327080D-04 -0.53027131D-04 -0.84003884D-05  0.35867155D-04
  0.22554229D-04  0.35729689D-05  0.16329568D-04  0.10268471D-04  0.16266983D-05
  0.34457366D+01  0.33325664D+01  0.10386154D+01 -0.25101046D-02  0.33574677D-02
  0.25339309D-02  0.56211362D-04  0.35347213D-04  0.55995924D-05  0.26152661D-01
  0.16445495D-01  0.26052427D-02 -0.28869883D-02 -0.18154157D-02 -0.28759235D-03
  0.10398406D-01  0.10056886D-01  0.31342921D-02 -0.10249483D-04  0.13709512D-04
  0.10346773D-04  0.14951640D-03  0.94019923D-04  0.14894335D-04  0.10214237D-04
  0.64229863D-05  0.10175089D-05 -0.15723002D-04 -0.98870456D-05 -0.15662741D-05
 -0.12736131D-03 -0.12317831D-03 -0.38389300D-04  0.40897530D-05 -0.54703750D-05
 -0.41285736D-05  0.24195286D-04  0.15214645D-04  0.24102554D-05 -0.27915460D-05
 -0.17553990D-05 -0.27808470D-06 -0.15501604D-04 -0.97478249D-05 -0.15442192D-05
  0.21664292D-01  0.20952760D-01  0.65300601D-02 -0.12446428D-03  0.16648103D-03
  0.12564572D-03 -0.29104835D-03 -0.18301901D-03 -0.28993287D-04 -0.18577057D-04
 -0.11681752D-04 -0.18505858D-05  0.35566018D-03  0.22364866D-03  0.35429706D-04
 -0.42798119D-03 -0.41392477D-03 -0.12900227D-03 -0.23304122D-05  0.31171145D-05
  0.23525328D-05  0.18838489D-04  0.11846148D-04  0.18766288D-05  0.13335899D-04
  0.83859712D-05  0.13284787D-05  0.42315038D-05  0.26608831D-05  0.42152859D-06
  0.52447301D-01  0.50724746D-01  0.15808688D-01  0.65979133D-03 -0.88252420D-03
 -0.66605418D-03  0.19287250D-02  0.12128341D-02  0.19213329D-03  0.27059858D-02
  0.17015965D-02  0.26956148D-03  0.10477336D-02  0.65884300D-03  0.10437180D-03
 -0.67047208D-02 -0.64845140D-02 -0.20209398D-02  0.10415152D-04 -0.13931107D-04
 -0.10514015D-04 -0.85611686D-07 -0.53834926D-07 -0.85283567D-08  0.81078919D-05
  0.50984600D-05  0.80768172D-06  0.26833352D-05  0.16873532D-05  0.26730509D-06
 -0.22351404D-04 -0.21617305D-04 -0.67371697D-05 -0.35012177D-04 -0.33862253D-04
 -0.10553385D-04 -0.30359609D-05 -0.29362492D-05 -0.91510062D-06  0.95720086D-05
  0.92576300D-05  0.28851989D-05 -0.13371850D-03 -0.12932671D-03 -0.40305488D-04
 -0.34710449D-04 -0.33570435D-04 -0.10462438D-04 -0.78760311D-06 -0.76173544D-06
 -0.23739967D-06 -0.41423671D-03 -0.40063171D-03 -0.12485941D-03  0.20870307D-03
  0.20184853D-03  0.62907369D-04  0.74134266D-05  0.71699434D-05  0.22345582D-05
  0.53827079D-05  0.52059207D-05  0.16224581D-05 -0.16458560D-02 -0.15918003D-02
 -0.49609463D-03 -0.16724790D-02 -0.16175488D-02 -0.50411932D-03  0.36848055D-05
  0.35637834D-05  0.11106756D-05
MO    2     MO 0.0        OCC NO =    2.0000005  ORB. ENERGY =    0.000000
  0.14900953D+00  0.14411553D+00  0.44914517D-01  0.28673327D-03 -0.38352891D-03
 -0.28945499D-03  0.83525644D-03  0.52523167D-03  0.83205520D-04 -0.90349368D-03
 -0.56814107D-03 -0.90003091D-04 -0.42471461D-03 -0.26707195D-03 -0.42308683D-04
  0.24030768D+01  0.23241513D+01  0.72433644D+00  0.13792515D-03 -0.18448602D-03
 -0.13923435D-03 -0.89126253D-02 -0.56044979D-02 -0.88784663D-03 -0.52637274D-02
 -0.33099730D-02 -0.52435534D-03  0.82963090D-02  0.52169417D-02  0.82645122D-03
  0.25277350D+01  0.24447152D+01  0.76191095D+00 -0.20982885D-02  0.28066304D-02
  0.21182059D-02  0.16067076D-01  0.10103409D-01  0.16005497D-02 -0.77002067D-02
 -0.48420966D-02 -0.76706946D-03 -0.37220000D-02 -0.23404935D-02 -0.37077349D-03
  0.18377931D-01  0.17774335D-01  0.55394837D-02 -0.17647302D-04  0.23604692D-04
  0.17814813D-04  0.29533969D-04  0.18571752D-04  0.29420776D-05  0.13878093D-03
  0.87269170D-04  0.13824903D-04 -0.65963502D-05 -0.41479620D-05 -0.65710687D-06
  0.64743225D-01  0.62616829D-01  0.19514931D-01 -0.19315610D-03  0.25836188D-03
  0.19498957D-03 -0.20417594D-03 -0.12839131D-03 -0.20339341D-04  0.11208182D-03
  0.70480054D-04  0.11165225D-04  0.13939352D-04  0.87654387D-05  0.13885928D-05
 -0.16468165D-01 -0.15927293D-01 -0.49638414D-02 -0.29807109D-04  0.39869416D-04
  0.30090043D-04  0.36873558D-03  0.23187083D-03  0.36732235D-04  0.18143584D-03
  0.11409172D-03  0.18074046D-04  0.35254873D-03  0.22169210D-03  0.35119753D-04
  0.39589145D-02  0.38288898D-02  0.11932977D-02  0.34619389D-05 -0.46306229D-05
 -0.34948002D-05 -0.33075263D-04 -0.20798613D-04 -0.32948498D-05  0.14670137D-05
  0.92249761D-06  0.14613912D-06 -0.28565272D-04 -0.17962610D-04 -0.28455792D-05
 -0.92742486D-02 -0.89696495D-02 -0.27954480D-02  0.10356177D-02 -0.13852223D-02
 -0.10454480D-02 -0.63671171D-03 -0.40038141D-03 -0.63427142D-04 -0.14389305D-02
 -0.90483814D-03 -0.14334156D-03  0.79213946D-03  0.49811855D-03  0.78910347D-04
 -0.14576412D-02 -0.14097671D-02 -0.43936283D-03  0.16150148D-04 -0.21602128D-04
 -0.16303448D-04 -0.29625729D-04 -0.18629453D-04 -0.29512184D-05  0.31895527D-04
  0.20056764D-04  0.31773283D-05  0.29963250D-04  0.18841696D-04  0.29848412D-05
  0.10060818D+01  0.97303851D+00  0.30325360D+00 -0.16462462D-02  0.22019872D-02
  0.16618726D-02 -0.42876626D-04 -0.26961973D-04 -0.42712295D-05 -0.67220369D-03
 -0.42269972D-03 -0.66962738D-04  0.50972697D-03  0.32053000D-03  0.50777337D-04
 -0.31592561D-03 -0.30554950D-03 -0.95226433D-04 -0.73531429D-04 -0.71116397D-04
 -0.22163875D-04 -0.25794189D-04 -0.24947017D-04 -0.77748954D-05 -0.55468615D-04
 -0.53646830D-04 -0.16719374D-04  0.11935079D-04  0.11543089D-04  0.35974767D-05
 -0.48245365D-05 -0.46660817D-05 -0.14542139D-05  0.19093174D-03  0.18466086D-03
  0.57550725D-04  0.49455195D-05  0.47830911D-05  0.14906806D-05  0.18397033D-05
  0.17792810D-05  0.55452416D-06 -0.13325216D-02 -0.12887569D-02 -0.40164923D-03
 -0.12720770D-02 -0.12302975D-02 -0.38342998D-03 -0.85771192D-05 -0.82954163D-05
 -0.25853189D-05 -0.15834520D-04 -0.15314459D-04 -0.47728478D-05 -0.48946594D-03
 -0.47339015D-03 -0.14753503D-03
MO    3     MO 0.0        OCC NO =    2.0000005  ORB. ENERGY =    0.000000
  0.10838077D+00  0.10482117D+00  0.32668179D-01  0.14735130D-03 -0.19709426D-03
 -0.14874998D-03  0.10624104D-02  0.66807217D-03  0.10583386D-03 -0.17261232D-02
 -0.10854326D-02 -0.17195076D-03  0.42723499D-03  0.26865682D-03  0.42559755D-04
  0.28639113D+01  0.27698503D+01  0.86324136D+00 -0.26366370D-03  0.35267149D-03
  0.26616644D-03 -0.97933310D-02 -0.61583093D-02 -0.97557967D-03 -0.62496026D-02
 -0.39299178D-02 -0.62256501D-03  0.98460148D-02  0.61914383D-02  0.98082785D-03
 -0.23196067D+01 -0.22434227D+01 -0.69917685D+00  0.21247492D-02 -0.28420238D-02
 -0.21449177D-02 -0.13196177D-01 -0.82981105D-02 -0.13145601D-02  0.67363283D-02
  0.42359840D-02  0.67105104D-03  0.27592894D-02  0.17351152D-02  0.27487140D-03
  0.29850713D-02  0.28870310D-02  0.89976147D-03 -0.52687648D-05  0.70473985D-05
  0.53187768D-05  0.23738108D-04  0.14927159D-04  0.23647128D-05  0.23249109D-04
  0.14619664D-04  0.23160004D-05  0.44447145D-05  0.27949558D-05  0.44276795D-06
 -0.70903655D-01 -0.68574929D-01 -0.21371810D-01  0.25338227D-03 -0.33891925D-03
 -0.25578742D-03 -0.87541979D-04 -0.55048746D-04 -0.87206462D-05 -0.21645003D-04
 -0.13610959D-04 -0.21562045D-05  0.66365449D-04  0.41732375D-04  0.66111093D-05
 -0.66045971D-02 -0.63876788D-02 -0.19907605D-02  0.13297360D-04 -0.17786293D-04
 -0.13423581D-04 -0.20303835D-03 -0.12767596D-03 -0.20226017D-04 -0.68027154D-04
 -0.42777300D-04 -0.67766430D-05 -0.12568824D-03 -0.79036138D-04 -0.12520652D-04
 -0.20342006D-02 -0.19673903D-02 -0.61314962D-03 -0.28390581D-04  0.37974696D-04
  0.28660069D-04  0.14332549D-03  0.90126912D-04  0.14277617D-04  0.50713866D-04
  0.31890240D-04  0.50519498D-05  0.80538979D-04  0.50645071D-04  0.80230301D-05
  0.10959839D-01  0.10599879D-01  0.33035192D-02 -0.15671215D-03  0.20961516D-03
  0.15819969D-03 -0.27581160D-02 -0.17343773D-02 -0.27475451D-03  0.34530631D-02
  0.21713787D-02  0.34398287D-03  0.44568447D-03  0.28025836D-03  0.44397632D-04
 -0.47031553D-03 -0.45486871D-03 -0.14176271D-03  0.41831309D-05 -0.55952756D-05
 -0.42228379D-05 -0.14612882D-04 -0.91889721D-05 -0.14556876D-05  0.10961308D-04
  0.68927648D-05  0.10919298D-05  0.50832743D-05  0.31964993D-05  0.50637919D-06
  0.80967503D+00  0.78308244D+00  0.24405259D+00 -0.12037119D-02  0.16100619D-02
  0.12151378D-02 -0.14207711D-02 -0.89341899D-03 -0.14153258D-03 -0.16444480D-02
 -0.10340730D-02 -0.16381454D-03  0.15887472D-02  0.99904690D-03  0.15826581D-03
  0.27256968D-03  0.26361753D-03  0.82158069D-04  0.74763631D-04  0.72308129D-04
  0.22535286D-04  0.50778543D-04  0.49110796D-04  0.15305690D-04  0.48598022D-04
  0.47001891D-04  0.14648436D-04 -0.53657382D-05 -0.51895084D-05 -0.16173431D-05
  0.66099669D-05  0.63928722D-05  0.19923790D-05 -0.27925780D-04 -0.27008599D-04
 -0.84174005D-05 -0.50776432D-05 -0.49108754D-05 -0.15305054D-05 -0.10636246D-05
 -0.10286914D-05 -0.32059817D-06  0.10669256D-02  0.10318840D-02  0.32159317D-03
  0.11467908D-02  0.11091262D-02  0.34566618D-03 -0.17985156D-05 -0.17394460D-05
 -0.54210933D-06 -0.51438121D-05 -0.49748712D-05 -0.15504500D-05 -0.25401078D-03
 -0.24566816D-03 -0.76564036D-04
MO    4     MO 0.0        OCC NO =    2.0000003  ORB. ENERGY =    0.000000
  0.41893982D+01  0.40518035D+01  0.12627702D+01 -0.52543555D-03  0.70281249D-03
  0.53042307D-03  0.12531131D-01  0.78799116D-02  0.12483104D-02  0.11019519D-01
  0.69293694D-02  0.10977285D-02 -0.14146132D-01 -0.88954675D-02 -0.14091915D-02
 -0.48538253D+00 -0.46944085D+00 -0.14630421D+00 -0.39020267D-04  0.52192759D-04
  0.39390654D-04  0.17915415D-02  0.11265694D-02  0.17846751D-03  0.11506863D-02
  0.72358242D-03  0.11462761D-03 -0.17642108D-02 -0.11093831D-02 -0.17574492D-03
 -0.74672598D-01 -0.72220086D-01 -0.22507846D-01  0.95469163D-04 -0.12769772D-03
 -0.96375372D-04 -0.33989789D-03 -0.21373692D-03 -0.33859519D-04  0.18646746D-03
  0.11725574D-03  0.18575280D-04  0.62782180D-04  0.39479120D-04  0.62541559D-05
  0.29265350D-03  0.28304173D-03  0.88211744D-04 -0.90601403D-06  0.12118670D-05
  0.91461407D-06  0.51570873D-05  0.32429149D-05  0.51373220D-06  0.25595195D-05
  0.16094945D-05  0.25497098D-06  0.13939117D-05  0.87652907D-06  0.13885693D-06
  0.16578061D-02  0.16033579D-02  0.49969662D-03  0.20225414D-04 -0.27053125D-04
 -0.20417397D-04 -0.86870815D-04 -0.54626700D-04 -0.86537871D-05  0.26166986D-04
  0.16454503D-04  0.26066697D-05  0.36575569D-04  0.22999700D-04  0.36435388D-05
  0.48249193D-01  0.46664519D-01  0.14543292D-01 -0.16210077D-03  0.21682287D-03
  0.16363945D-03  0.14239908D-04  0.89544364D-05  0.14185332D-05 -0.48318540D-04
 -0.30383995D-04 -0.48133352D-05 -0.92437436D-05 -0.58127140D-05 -0.92083156D-06
  0.72130788D-03  0.69761758D-03  0.21741693D-03 -0.33802942D-05  0.45214166D-05
  0.34123805D-05  0.11539238D-04  0.72561823D-05  0.11495012D-05  0.69441709D-05
  0.43666810D-05  0.69175564D-06  0.68203781D-05  0.42888368D-05  0.67942380D-06
 -0.39729485D-02 -0.38424628D-02 -0.11975278D-02  0.10393245D-03 -0.13901805D-03
 -0.10491899D-03 -0.48456009D-03 -0.30470439D-03 -0.48270295D-04  0.16786809D-03
  0.10555996D-03  0.16722471D-04  0.39303456D-03  0.24715068D-03  0.39152820D-04
 -0.36445501D-03 -0.35248501D-03 -0.10985418D-03  0.23845216D-05 -0.31894903D-05
 -0.24071559D-05 -0.71936398D-05 -0.45235537D-05 -0.71660691D-06  0.27533159D-05
  0.17313589D-05  0.27427635D-06  0.24727932D-05  0.15549587D-05  0.24633158D-06
  0.33013013D+00  0.31928749D+00  0.99507964D-01 -0.30021603D-03  0.40156320D-03
  0.30306573D-03  0.15495752D-02  0.97441449D-03  0.15436363D-03  0.34535831D-02
  0.21717057D-02  0.34403467D-03 -0.28070368D-02 -0.17651401D-02 -0.27962784D-03
  0.41102495D-05  0.39752544D-05  0.12389132D-05 -0.15246562D-05 -0.14745811D-05
 -0.45956251D-06 -0.47816589D-04 -0.46246124D-04 -0.14412897D-04 -0.17406404D-03
 -0.16834716D-03 -0.52466458D-04  0.16452127D-05  0.15911781D-05  0.49590071D-06
 -0.80139038D-07 -0.77506989D-07 -0.24155543D-07 -0.68961126D-04 -0.66696199D-04
 -0.20786292D-04 -0.22242987D-07 -0.21512448D-07 -0.67044905D-08 -0.79774162D-07
 -0.77154096D-07 -0.24045562D-07  0.47822689D-04  0.46252023D-04  0.14414735D-04
  0.37342858D-04  0.36116387D-04  0.11255900D-04 -0.17859245D-06 -0.17272684D-06
 -0.53831411D-07 -0.11813092D-05 -0.11425108D-05 -0.35607071D-06 -0.14043086D-02
 -0.13581862D-02 -0.42328730D-03
MO    5     MO 0.0        OCC NO =    2.0000002  ORB. ENERGY =    0.000000
  0.67943285D+00  0.65711787D+00  0.20479494D+00 -0.12923046D-02  0.17285618D-02
  0.13045714D-02  0.99285935D-03  0.62433660D-03  0.98905408D-04  0.50488417D-02
  0.31748471D-02  0.50294913D-03 -0.32065326D-02 -0.20163537D-02 -0.31942431D-03
  0.19391374D+01  0.18754493D+01  0.58449563D+00 -0.78375124D-03  0.10483306D-02
  0.79119074D-03 -0.57918581D-02 -0.36420758D-02 -0.57696600D-03 -0.34797167D-02
 -0.21881392D-02 -0.34663802D-03  0.56106098D-02  0.35281020D-02  0.55891064D-03
  0.27161048D+00  0.26268983D+00  0.81868947D-01 -0.20398673D-03  0.27284873D-03
  0.20592301D-03  0.66469880D-03  0.41798045D-03  0.66215125D-04  0.41956049D-03
  0.26383090D-03  0.41795247D-04 -0.23306872D-03 -0.14655986D-03 -0.23217545D-04
 -0.11353799D-02 -0.10980900D-02 -0.34222670D-03  0.47477098D-05 -0.63504454D-05
 -0.47927759D-05 -0.23611306D-04 -0.14847423D-04 -0.23520813D-05 -0.88409950D-05
 -0.55594549D-05 -0.88071106D-06 -0.63105595D-05 -0.39682492D-05 -0.62863734D-06
  0.46374496D-01  0.44851394D-01  0.13978220D-01 -0.13637934D-03  0.18241839D-03
  0.13767388D-03  0.11368810D-03  0.71490127D-04  0.11325237D-04 -0.15340012D-04
 -0.96462110D-05 -0.15281219D-05 -0.30996128D-04 -0.19491197D-04 -0.30877331D-05
  0.10106778D+00  0.97748354D-01  0.30463892D-01 -0.71396862D-04  0.95499070D-04
  0.72074573D-04 -0.29965968D-03 -0.18843405D-03 -0.29851119D-04 -0.35973832D-03
 -0.22621311D-03 -0.35835957D-04 -0.28574649D-03 -0.17968506D-03 -0.28465133D-04
  0.56019842D-02  0.54179952D-02  0.16885525D-02  0.89164415D-05 -0.11926461D-04
 -0.90010779D-05 -0.99120306D-04 -0.62329508D-04 -0.98740413D-05 -0.30537624D-04
 -0.19202877D-04 -0.30420584D-05 -0.37542044D-04 -0.23607445D-04 -0.37398159D-05
  0.43397906D+00  0.41972565D+00  0.13081015D+00 -0.20090653D-02  0.26872872D-02
  0.20281357D-02  0.40532150D-02  0.25487704D-02  0.40376805D-03 -0.17746219D-02
 -0.11159299D-02 -0.17678204D-03 -0.16293649D-02 -0.10245884D-02 -0.16231201D-03
  0.36801453D-02  0.35592763D-02  0.11092710D-02 -0.11039094D-04  0.14765681D-04
  0.11143879D-04  0.11605958D-04  0.72981378D-05  0.11561476D-05 -0.90822193D-05
 -0.57111432D-05 -0.90474104D-06 -0.75273145D-05 -0.47333773D-05 -0.74984650D-06
 -0.22955403D+01 -0.22201467D+01 -0.69192274D+00  0.57053444D-02 -0.76313590D-02
 -0.57595005D-02 -0.34118980D-02 -0.21454930D-02 -0.33988214D-03 -0.66507141D-03
 -0.41821475D-03 -0.66252243D-04  0.26915853D-02  0.16925411D-02  0.26812694D-03
 -0.54755988D-04 -0.52957608D-04 -0.16504573D-04 -0.46160180D-04 -0.44644117D-04
 -0.13913621D-04 -0.67979214D-04 -0.65746536D-04 -0.20490323D-04 -0.70700312D-04
 -0.68378264D-04 -0.21310518D-04 -0.92633872D-05 -0.89591448D-05 -0.27921741D-05
 -0.10227368D-04 -0.98914655D-05 -0.30827378D-05 -0.36650628D-03 -0.35446891D-03
 -0.11047248D-03 -0.30105499D-05 -0.29116728D-05 -0.90744124D-06 -0.26252853D-05
 -0.25390616D-05 -0.79131460D-06 -0.17428755D-03 -0.16856333D-03 -0.52533827D-04
 -0.12284613D-03 -0.11881143D-03 -0.37028333D-04  0.27134164D-06  0.26242982D-06
  0.81787914D-07  0.37933970D-05  0.36688084D-05  0.11434073D-05  0.14785995D-03
  0.14300371D-03  0.44568010D-04
MO    6     MO 0.0        OCC NO =    2.0000001  ORB. ENERGY =    0.000000
 -0.90662666D-01 -0.87684983D-01 -0.27327579D-01  0.13808097D-03 -0.18469446D-03
 -0.13939166D-03 -0.10717490D-03 -0.67394453D-04 -0.10676414D-04 -0.22694003D-03
 -0.14270598D-03 -0.22607024D-04  0.34395326D-03  0.21628704D-03  0.34263501D-04
 -0.12109687D+00 -0.11711962D+00 -0.36501071D-01  0.67910592D-04 -0.90835903D-04
 -0.68555211D-04  0.13084537D-04  0.82279081D-05  0.13034389D-05  0.43118356D-03
  0.27113979D-03  0.42953098D-04 -0.25616864D-03 -0.16108572D-03 -0.25518684D-04
 -0.86436447D-01 -0.83597568D-01 -0.26053711D-01  0.35115279D-03 -0.46969522D-03
 -0.35448599D-03 -0.21634343D-03 -0.13604256D-03 -0.21551427D-04  0.11161870D-02
  0.70188834D-03  0.11119090D-03 -0.87979930D-04 -0.55324141D-04 -0.87642734D-05
 -0.35092113D-01 -0.33939564D-01 -0.10577480D-01  0.23707569D-03 -0.31710788D-03
 -0.23932605D-03 -0.69617878D-03 -0.43777590D-03 -0.69351057D-04 -0.38700857D-03
 -0.24336137D-03 -0.38552530D-04 -0.25617493D-03 -0.16108967D-03 -0.25519311D-04
  0.16476169D+01  0.15935033D+01  0.49662539D+00 -0.35209164D-02  0.47095101D-02
  0.35543375D-02 -0.11211925D-03 -0.70503591D-04 -0.11168953D-04  0.10848047D-02
  0.68215432D-03  0.10806471D-03  0.12314258D-02  0.77435357D-03  0.12267062D-03
  0.13880045D+01  0.13424175D+01  0.41837290D+00 -0.29341902D-02  0.39247165D-02
  0.29620421D-02  0.11439170D-02  0.71932571D-03  0.11395328D-03 -0.97202677D-03
 -0.61123652D-03 -0.96830134D-04 -0.99960526D-03 -0.62857861D-03 -0.99577412D-04
  0.12970599D+01  0.12544599D+01  0.39096035D+00 -0.27416497D-02  0.36671779D-02
  0.27676739D-02 -0.11436573D-02 -0.71916241D-03 -0.11392741D-03 -0.91071493D-03
 -0.57268199D-03 -0.90722448D-04 -0.10814895D-02 -0.68006963D-03 -0.10773445D-03
  0.70099672D+00  0.67797351D+00  0.21129473D+00 -0.13205185D-02  0.17663002D-02
  0.13330531D-02  0.11750597D-02  0.73890909D-03  0.11705561D-03  0.86690168D-03
  0.54513104D-03  0.86357916D-04  0.63232735D-03  0.39762441D-03  0.62990387D-04
  0.57787624D+00  0.55889674D+00  0.17418370D+00 -0.10694210D-02  0.14304369D-02
  0.10795721D-02 -0.13736933D-02 -0.86381520D-03 -0.13684284D-03  0.41101579D-03
  0.25845776D-03  0.40944051D-04  0.52760434D-03  0.33177177D-03  0.52558222D-04
  0.17433276D+00  0.16860706D+00  0.52547456D-01 -0.19953185D-03  0.26688997D-03
  0.20142584D-03  0.10562853D-02  0.66422052D-03  0.10522369D-03 -0.35592836D-03
 -0.22381730D-03 -0.35456421D-04 -0.47601802D-03 -0.29933290D-03 -0.47419361D-04
 -0.13874403D-02 -0.13418719D-02 -0.41820285D-03 -0.13748658D-02 -0.13297103D-02
 -0.41441263D-03 -0.11753920D-02 -0.11367880D-02 -0.35428715D-03 -0.11540618D-02
 -0.11161583D-02 -0.34785779D-03 -0.10913090D-02 -0.10554665D-02 -0.32894281D-03
 -0.10790308D-02 -0.10435916D-02 -0.32524193D-03 -0.62469619D-03 -0.60417896D-03
 -0.18829619D-03 -0.51224800D-03 -0.49542397D-03 -0.15440201D-03 -0.49776792D-03
 -0.48141946D-03 -0.15003742D-03 -0.28449276D-04 -0.27514901D-04 -0.85751929D-05
 -0.36824915D-05 -0.35615454D-05 -0.11099781D-05 -0.47289709D-04 -0.45736548D-04
 -0.14254084D-04 -0.30167099D-04 -0.29176304D-04 -0.90929797D-05 -0.41046044D-05
 -0.39697947D-05 -0.12372116D-05
MO    7     MO 0.0        OCC NO =    2.0000001  ORB. ENERGY =    0.000000
  0.10278673D+00  0.99410854D-01  0.30982021D-01 -0.16661050D-03  0.22285501D-03
  0.16819200D-03  0.10762650D-03  0.67678434D-04  0.10721401D-04  0.21697508D-03
  0.13643975D-03  0.21614349D-04 -0.41491201D-03 -0.26090780D-03 -0.41332180D-04
  0.19043106D+00  0.18417664D+00  0.57399813D-01 -0.11942724D-03  0.15974358D-03
  0.12056086D-03  0.11444965D-03  0.71969012D-04  0.11401101D-04 -0.85347511D-03
 -0.53668805D-03 -0.85020404D-04  0.32913128D-03  0.20696658D-03  0.32786984D-04
  0.12381773D-03  0.11975112D-03  0.37321193D-04 -0.44453227D-03  0.59459783D-03
  0.44875185D-03  0.64828078D-04  0.40765635D-04  0.64579615D-05 -0.20702943D-02
 -0.13018566D-02 -0.20623596D-03  0.32119362D-03  0.20197517D-03  0.31996260D-04
 -0.42413941D-01 -0.41020917D-01 -0.12784428D-01  0.39868494D-03 -0.53327331D-03
 -0.40246932D-03 -0.12267643D-02 -0.77142229D-03 -0.12220625D-03 -0.73051383D-03
 -0.45936670D-03 -0.72771403D-04 -0.55239457D-03 -0.34736053D-03 -0.55027744D-04
  0.19449155D+00  0.18810376D+00  0.58623725D-01 -0.46960268D-03  0.62813153D-03
  0.47406023D-03  0.31078167D-02  0.19542785D-02  0.30959055D-03  0.11189727D-03
  0.70364004D-04  0.11146840D-04  0.21900918D-03  0.13771885D-03  0.21816979D-04
 -0.13046856D+01 -0.12618351D+01 -0.39325888D+00  0.30636989D-02 -0.40979448D-02
 -0.30927800D-02  0.16816264D-02  0.10574518D-02  0.16751814D-03  0.77791552D-03
  0.48917416D-03  0.77493405D-04  0.68585600D-03  0.43128466D-03  0.68322736D-04
  0.14800805D+01  0.14314694D+01  0.44612648D+00 -0.35552237D-02  0.47553989D-02
  0.35889705D-02  0.98275495D-03  0.61798268D-03  0.97898839D-04 -0.53065618D-03
 -0.33369084D-03 -0.52862236D-04 -0.66599348D-03 -0.41879457D-03 -0.66344096D-04
 -0.14227591D+01 -0.13760307D+01 -0.42884865D+00  0.31676501D-02 -0.42369879D-02
 -0.31977180D-02 -0.99124283D-03 -0.62332009D-03 -0.98744375D-04 -0.83290938D-03
 -0.52375577D-03 -0.82971713D-04 -0.69533578D-03 -0.43724580D-03 -0.69267080D-04
  0.10759914D+01  0.10406521D+01  0.32432580D+00 -0.23100822D-02  0.30899216D-02
  0.23320099D-02 -0.14608842D-02 -0.91864316D-03 -0.14552851D-03  0.49006644D-03
  0.30816693D-03  0.48818819D-04  0.70897181D-03  0.44582050D-03  0.70625457D-04
 -0.24281798D+00 -0.23484298D+00 -0.73190298D-01  0.15707745D-03 -0.21010378D-03
 -0.15856846D-03 -0.19168508D-02 -0.12053672D-02 -0.19095042D-03  0.72694244D-03
  0.45712092D-03  0.72415633D-04  0.91517735D-03  0.57548808D-03  0.91166980D-04
 -0.14083128D-03 -0.13620588D-03 -0.42449424D-04 -0.15822651D-03 -0.15302980D-03
 -0.47692703D-04  0.10745076D-02  0.10392170D-02  0.32387854D-03  0.10602842D-02
  0.10254608D-02  0.31959133D-03 -0.12118372D-02 -0.11720362D-02 -0.36527248D-03
 -0.11980488D-02 -0.11587007D-02 -0.36111639D-03  0.12090539D-02  0.11693443D-02
  0.36443353D-03 -0.91680288D-03 -0.88669183D-03 -0.27634311D-03 -0.89412910D-03
 -0.86476274D-03 -0.26950878D-03  0.14447636D-03  0.13973125D-03  0.43548127D-04
  0.11053992D-03  0.10690940D-03  0.33318990D-04 -0.79785049D-04 -0.77164626D-04
 -0.24048844D-04 -0.50796846D-04 -0.49128498D-04 -0.15311207D-04  0.23699490D-04
  0.22921115D-04  0.71435105D-05
MO    8     MO 0.0        OCC NO =    2.0000000  ORB. ENERGY =    0.000000
  0.47917718D-01  0.46343931D-01  0.14443379D-01 -0.93029488D-04  0.12443446D-03
  0.93912540D-04  0.54002323D-04  0.33958110D-04  0.53795351D-05  0.12234241D-03
  0.76932188D-04  0.12187351D-04 -0.21900827D-03 -0.13771828D-03 -0.21816889D-04
  0.19261256D+00  0.18628648D+00  0.58057359D-01 -0.12807064D-03  0.17130483D-03
  0.12928631D-03  0.21610996D-03  0.13589574D-03  0.21528169D-04 -0.10141096D-02
 -0.63769935D-03 -0.10102229D-03  0.26478065D-03  0.16650118D-03  0.26376584D-04
 -0.50799023D-01 -0.49130604D-01 -0.15311863D-01 -0.45150644D-03  0.60392633D-03
  0.45579221D-03  0.48653716D-04  0.30594762D-04  0.48467244D-05 -0.24516785D-02
 -0.15416812D-02 -0.24422820D-03  0.46962464D-03  0.29531258D-03  0.46782474D-04
  0.30842026D-01  0.29829065D-01  0.92964165D-02 -0.47389948D-03  0.63387884D-03
  0.47839781D-03  0.15413739D-02  0.96925729D-03  0.15354664D-03  0.96610579D-03
  0.60751324D-03  0.96240305D-04  0.80451425D-03  0.50590015D-03  0.80143083D-04