 opt methionine b3lyp
GAUSSIAN             40 MOL ORBITALS    180 PRIMITIVES       20 NUCLEI
  S    1    (CENTRE  1)   4.07464627 -1.20866433 -0.97300885  CHARGE = 16.0
  O    2    (CENTRE  2)  -2.83904402 -3.30470421 -0.50654499  CHARGE =  8.0
  O    3    (CENTRE  3)  -6.11648893 -0.42571707  0.33609225  CHARGE =  8.0
  N    4    (CENTRE  4)  -2.93912550  3.87110048 -0.83100875  CHARGE =  7.0
  C    5    (CENTRE  5)   0.12221709  1.28388863  1.77094584  CHARGE =  6.0
  C    6    (CENTRE  6)  -1.74503660  1.27335656 -0.53511923  CHARGE =  6.0
  C    7    (CENTRE  7)   1.93796618 -1.05190581  1.74899456  CHARGE =  6.0
  C    8    (CENTRE  8)  -3.84227517 -0.82692339 -0.18650584  CHARGE =  6.0
  C    9    (CENTRE  9)   6.23669771  1.32096829 -0.05934484  CHARGE =  6.0
  H   10    (CENTRE 10)   1.20967598  3.06131035  1.68730369  CHARGE =  1.0
  H   11    (CENTRE 11)  -0.96313927  1.30192111  3.55471024  CHARGE =  1.0
  H   12    (CENTRE 12)  -0.63160860  0.84720311 -2.26039350  CHARGE =  1.0
  H   13    (CENTRE 13)   0.76772183 -2.77871368  1.66945653  CHARGE =  1.0
  H   14    (CENTRE 14)   3.02139786 -1.08438472  3.53350756  CHARGE =  1.0
  H   15    (CENTRE 15)  -4.41897499  3.86629388  0.53310981  CHARGE =  1.0
  H   16    (CENTRE 16)  -3.99040787  3.73610791 -2.53871403  CHARGE =  1.0
  H   17    (CENTRE 17)   5.31193655  3.18678260 -0.00756319  CHARGE =  1.0
  H   18    (CENTRE 18)   7.76029297  1.40265202 -1.47158119  CHARGE =  1.0
  H   19    (CENTRE 19)   7.10024056  0.97112873  1.80431931  CHARGE =  1.0
  H   20    (CENTRE 20)  -4.40074857 -4.42231081 -0.18915329  CHARGE =  1.0
CENTRE ASSIGNMENTS    1  1  1  1  1  1  1  1  1  1  1  1  1  1  1  1  1  1  1  1
CENTRE ASSIGNMENTS    1  1  1  1  1  1  1  2  2  2  2  2  2  2  2  2  2  2  2  2
CENTRE ASSIGNMENTS    2  2  3  3  3  3  3  3  3  3  3  3  3  3  3  3  3  4  4  4
CENTRE ASSIGNMENTS    4  4  4  4  4  4  4  4  4  4  4  4  5  5  5  5  5  5  5  5
CENTRE ASSIGNMENTS    5  5  5  5  5  5  5  6  6  6  6  6  6  6  6  6  6  6  6  6
CENTRE ASSIGNMENTS    6  6  7  7  7  7  7  7  7  7  7  7  7  7  7  7  7  8  8  8
CENTRE ASSIGNMENTS    8  8  8  8  8  8  8  8  8  8  8  8  9  9  9  9  9  9  9  9
CENTRE ASSIGNMENTS    9  9  9  9  9  9  9 10 10 10 11 11 11 12 12 12 13 13 13 14
CENTRE ASSIGNMENTS   14 14 15 15 15 16 16 16 17 17 17 18 18 18 19 19 19 20 20 20
TYPE ASSIGNMENTS      1  1  1  1  1  1  2  2  2  3  3  3  4  4  4  1  1  1  2  2
TYPE ASSIGNMENTS      2  3  3  3  4  4  4  1  1  1  1  1  1  2  2  2  3  3  3  4
TYPE ASSIGNMENTS      4  4  1  1  1  1  1  1  2  2  2  3  3  3  4  4  4  1  1  1
TYPE ASSIGNMENTS      1  1  1  2  2  2  3  3  3  4  4  4  1  1  1  1  1  1  2  2
TYPE ASSIGNMENTS      2  3  3  3  4  4  4  1  1  1  1  1  1  2  2  2  3  3  3  4
TYPE ASSIGNMENTS      4  4  1  1  1  1  1  1  2  2  2  3  3  3  4  4  4  1  1  1
TYPE ASSIGNMENTS      1  1  1  2  2  2  3  3  3  4  4  4  1  1  1  1  1  1  2  2
TYPE ASSIGNMENTS      2  3  3  3  4  4  4  1  1  1  1  1  1  1  1  1  1  1  1  1
TYPE ASSIGNMENTS      1  1  1  1  1  1  1  1  1  1  1  1  1  1  1  1  1  1  1  1
EXPONENTS  0.5331257D+03 0.9710952D+02 0.2628163D+02 0.3332975D+02 0.7745118D+01
EXPONENTS  0.2518953D+01 0.3332975D+02 0.7745118D+01 0.2518953D+01 0.3332975D+02
EXPONENTS  0.7745118D+01 0.2518953D+01 0.3332975D+02 0.7745118D+01 0.2518953D+01
EXPONENTS  0.2029194D+01 0.5661401D+00 0.2215834D+00 0.2029194D+01 0.5661401D+00
EXPONENTS  0.2215834D+00 0.2029194D+01 0.5661401D+00 0.2215834D+00 0.2029194D+01
EXPONENTS  0.5661401D+00 0.2215834D+00 0.1307093D+03 0.2380887D+02 0.6443608D+01
EXPONENTS  0.5033151D+01 0.1169596D+01 0.3803890D+00 0.5033151D+01 0.1169596D+01
EXPONENTS  0.3803890D+00 0.5033151D+01 0.1169596D+01 0.3803890D+00 0.5033151D+01
EXPONENTS  0.1169596D+01 0.3803890D+00 0.1307093D+03 0.2380887D+02 0.6443608D+01
EXPONENTS  0.5033151D+01 0.1169596D+01 0.3803890D+00 0.5033151D+01 0.1169596D+01
EXPONENTS  0.3803890D+00 0.5033151D+01 0.1169596D+01 0.3803890D+00 0.5033151D+01
EXPONENTS  0.1169596D+01 0.3803890D+00 0.9910617D+02 0.1805231D+02 0.4885660D+01
EXPONENTS  0.3780456D+01 0.8784966D+00 0.2857144D+00 0.3780456D+01 0.8784966D+00
EXPONENTS  0.2857144D+00 0.3780456D+01 0.8784966D+00 0.2857144D+00 0.3780456D+01
EXPONENTS  0.8784966D+00 0.2857144D+00 0.7161684D+02 0.1304510D+02 0.3530512D+01
EXPONENTS  0.2941249D+01 0.6834831D+00 0.2222899D+00 0.2941249D+01 0.6834831D+00
EXPONENTS  0.2222899D+00 0.2941249D+01 0.6834831D+00 0.2222899D+00 0.2941249D+01
EXPONENTS  0.6834831D+00 0.2222899D+00 0.7161684D+02 0.1304510D+02 0.3530512D+01
EXPONENTS  0.2941249D+01 0.6834831D+00 0.2222899D+00 0.2941249D+01 0.6834831D+00
EXPONENTS  0.2222899D+00 0.2941249D+01 0.6834831D+00 0.2222899D+00 0.2941249D+01
EXPONENTS  0.6834831D+00 0.2222899D+00 0.7161684D+02 0.1304510D+02 0.3530512D+01
EXPONENTS  0.2941249D+01 0.6834831D+00 0.2222899D+00 0.2941249D+01 0.6834831D+00
EXPONENTS  0.2222899D+00 0.2941249D+01 0.6834831D+00 0.2222899D+00 0.2941249D+01
EXPONENTS  0.6834831D+00 0.2222899D+00 0.7161684D+02 0.1304510D+02 0.3530512D+01
EXPONENTS  0.2941249D+01 0.6834831D+00 0.2222899D+00 0.2941249D+01 0.6834831D+00
EXPONENTS  0.2222899D+00 0.2941249D+01 0.6834831D+00 0.2222899D+00 0.2941249D+01
EXPONENTS  0.6834831D+00 0.2222899D+00 0.7161684D+02 0.1304510D+02 0.3530512D+01
EXPONENTS  0.2941249D+01 0.6834831D+00 0.2222899D+00 0.2941249D+01 0.6834831D+00
EXPONENTS  0.2222899D+00 0.2941249D+01 0.6834831D+00 0.2222899D+00 0.2941249D+01
EXPONENTS  0.6834831D+00 0.2222899D+00 0.3425251D+01 0.6239137D+00 0.1688554D+00
EXPONENTS  0.3425251D+01 0.6239137D+00 0.1688554D+00 0.3425251D+01 0.6239137D+00
EXPONENTS  0.1688554D+00 0.3425251D+01 0.6239137D+00 0.1688554D+00 0.3425251D+01
EXPONENTS  0.6239137D+00 0.1688554D+00 0.3425251D+01 0.6239137D+00 0.1688554D+00
EXPONENTS  0.3425251D+01 0.6239137D+00 0.1688554D+00 0.3425251D+01 0.6239137D+00
EXPONENTS  0.1688554D+00 0.3425251D+01 0.6239137D+00 0.1688554D+00 0.3425251D+01
EXPONENTS  0.6239137D+00 0.1688554D+00 0.3425251D+01 0.6239137D+00 0.1688554D+00
MO    1     MO 0.0        OCC NO =    2.0000000  ORB. ENERGY =  -87.706140
  0.12129952D+02  0.11731562D+02  0.36562153D+01 -0.17432704D-01  0.23317650D-01
  0.17598178D-01  0.24107201D-04  0.15159255D-04  0.24014807D-05  0.22011428D-02
  0.13841376D-02  0.21927066D-03  0.28724666D-02  0.18062841D-02  0.28614574D-03
  0.74194982D-03 -0.29257177D-03 -0.57782564D-03 -0.13266189D-06 -0.15121248D-05
 -0.36337777D-06 -0.90966490D-05 -0.10368666D-03 -0.24916877D-04 -0.12001394D-04
 -0.13679593D-03 -0.32873343D-04  0.70430278D-06  0.68117099D-06  0.21229124D-06
  0.17704456D-06 -0.23681140D-06 -0.17872509D-06 -0.22512994D-05 -0.14156774D-05
 -0.22426709D-06 -0.65580883D-06 -0.41239019D-06 -0.65329535D-07  0.14033787D-07
  0.88248222D-08  0.13980001D-08  0.21232518D-06  0.20535167D-06  0.63999145D-07
  0.12177708D-06 -0.16288668D-06 -0.12293300D-06 -0.61793472D-06 -0.38857393D-06
 -0.61556639D-07 -0.28605628D-06 -0.17987986D-06 -0.28495992D-07  0.91825849D-07
  0.57742558D-07  0.91473914D-08 -0.10509869D-05 -0.10164688D-05 -0.31678892D-06
 -0.60474964D-06  0.80890150D-06  0.61049003D-06 -0.85730754D-06 -0.53909799D-06
 -0.85402179D-07 -0.28398273D-05 -0.17857596D-05 -0.28289432D-06 -0.45012958D-06
 -0.28305356D-06 -0.44840439D-07 -0.26342863D-05 -0.25477670D-05 -0.79402770D-06
  0.21644535D-05 -0.28951313D-05 -0.21849988D-05 -0.27461184D-05 -0.17268329D-05
 -0.27355935D-06 -0.36574735D-05 -0.22999175D-05 -0.36434557D-06 -0.18071388D-05
 -0.11363774D-05 -0.18002127D-06  0.98428372D-05  0.95195636D-05  0.29668322D-05
  0.56884296D-05 -0.76087341D-05 -0.57424251D-05 -0.47767584D-05 -0.30037539D-05
 -0.47584508D-06  0.36275429D-05  0.22810963D-05  0.36136398D-06  0.20144540D-04
  0.12667427D-04  0.20067333D-05 -0.19867871D-03 -0.19215340D-03 -0.59885823D-04
 -0.80426689D-04  0.10757719D-03  0.81190114D-04  0.25836913D-03  0.16246944D-03
  0.25737889D-04 -0.12672265D-04 -0.79686606D-05 -0.12623697D-05 -0.31945055D-03
 -0.20087908D-03 -0.31822621D-04  0.47366050D-08  0.45810381D-08  0.14277095D-08
 -0.22264473D-06  0.29780532D-06  0.22475812D-06 -0.19713237D-06 -0.12396212D-06
 -0.19637683D-07  0.17918421D-05  0.11267584D-05  0.17849746D-06 -0.27666336D-06
 -0.17397335D-06 -0.27560301D-07 -0.19906911D-03 -0.19253098D-03 -0.60003496D-04
 -0.81008780D-04  0.10835579D-03  0.81777729D-04 -0.26341106D-03 -0.16563994D-03
 -0.26240149D-04 -0.30399407D-03 -0.19115963D-03 -0.30282897D-04 -0.10500103D-03
 -0.66027463D-04 -0.10459859D-04  0.29840547D-05  0.28860478D-05  0.89945505D-06
  0.33971430D-05  0.32855688D-05  0.10239683D-05  0.22489663D-04  0.21751023D-04
  0.67788439D-05  0.11027090D-05  0.10664921D-05  0.33237901D-06 -0.94499153D-06
 -0.91395466D-06 -0.28483975D-06 -0.26285453D-06 -0.25422146D-06 -0.79229724D-07
 -0.54545862D-06 -0.52754383D-06 -0.16441237D-06  0.42246582D-06  0.40859055D-06
  0.12733983D-06  0.90797152D-06  0.87815052D-06  0.27368116D-06  0.88121550D-07
  0.85227327D-07  0.26561635D-07 -0.44903576D-07 -0.43428784D-07 -0.13534855D-07
MO    2     MO 0.0        OCC NO =    2.0000000  ORB. ENERGY =  -18.940364
  0.50289340D-05  0.48637660D-05  0.15158234D-05  0.13058145D-05 -0.17466324D-05
 -0.13182095D-05  0.18002057D-04  0.11320177D-04  0.17933062D-05  0.25243578D-05
  0.15873839D-05  0.25146828D-06  0.33032334D-05  0.20771618D-05  0.32905733D-06
 -0.19716172D-05  0.77746432D-06  0.15354825D-05 -0.17112080D-06 -0.19504924D-05
 -0.46872161D-06 -0.28127449D-08 -0.32060611D-07 -0.77044654D-08 -0.81307282D-07
 -0.92676773D-06 -0.22271097D-06  0.42244404D+01  0.40856949D+01  0.12733326D+01
 -0.68519441D-02  0.91650288D-02  0.69169840D-02 -0.64121300D-02 -0.40321194D-02
 -0.63875546D-03  0.22141111D-02  0.13922925D-02  0.22056252D-03  0.16076465D-02
  0.10109313D-02  0.16014850D-03  0.40036333D-02  0.38721398D-02  0.12067769D-02
 -0.53843242D-04  0.72019687D-04  0.54354332D-04 -0.51505089D-04 -0.32387782D-04
 -0.51307688D-05 -0.11301048D-02 -0.71064022D-03 -0.11257735D-03 -0.32645601D-04
 -0.20528430D-04 -0.32520482D-05  0.55370126D-05  0.53551575D-05  0.16689687D-05
 -0.27575884D-05  0.36884973D-05  0.27837639D-05  0.42226680D-04  0.26553270D-04
  0.42064840D-05  0.55652355D-04  0.34995694D-04  0.55439059D-05  0.96289333D-05
  0.60549317D-05  0.95920291D-06 -0.19825703D-04 -0.19174556D-04 -0.59758717D-05
 -0.31841360D-05  0.42590392D-05  0.32143604D-05 -0.26041594D-04 -0.16375653D-04
 -0.25941786D-05 -0.19552775D-04 -0.12295310D-04 -0.19477836D-05  0.99119777D-05
  0.62329176D-05  0.98739886D-06 -0.67084092D-04 -0.64880813D-04 -0.20220516D-04
 -0.49930133D-04  0.66785586D-04  0.50404078D-04  0.43277075D-04  0.27213786D-04
  0.43111209D-05 -0.29357014D-03 -0.18460478D-03 -0.29244499D-04 -0.66696908D-04
 -0.41940805D-04 -0.66441282D-05 -0.82834874D-04 -0.80114284D-04 -0.24968123D-04
 -0.50803398D-04  0.67953650D-04  0.51285633D-04 -0.85960799D-04 -0.54054457D-04
 -0.85631342D-05 -0.19495301D-03 -0.12259169D-03 -0.19420583D-04  0.37261216D-04
  0.23430853D-04  0.37118407D-05  0.15948289D-02  0.15424491D-02  0.48071402D-03
  0.76383681D-03 -0.10216934D-02 -0.77108729D-03 -0.17596792D-02 -0.11065335D-02
 -0.17529349D-03  0.39622145D-02  0.24915468D-02  0.39470287D-03  0.55135200D-03
  0.34670493D-03  0.54923886D-04 -0.85020103D-06 -0.82227742D-06 -0.25626796D-06
 -0.20767411D-06  0.27778090D-06  0.20964539D-06 -0.26182071D-05 -0.16463989D-05
 -0.26081725D-06 -0.62684957D-06 -0.39417983D-06 -0.62444708D-07  0.14709499D-05
  0.92497276D-06  0.14653123D-06  0.44579739D-05  0.43115582D-05  0.13437244D-05
  0.27885539D-05  0.26969680D-05  0.84052712D-06 -0.36241954D-04 -0.35051640D-04
 -0.10924065D-04 -0.20337785D-03 -0.19669820D-03 -0.61302237D-04 -0.80771807D-05
 -0.78118975D-05 -0.24346272D-05 -0.22468776D-04 -0.21730822D-04 -0.67725480D-05
 -0.28600367D-05 -0.27661030D-05 -0.86207349D-06  0.18314339D-06  0.17712832D-06
  0.55203159D-07  0.25124159D-06  0.24298993D-06  0.75729347D-07  0.21414701D-06
  0.20711367D-06  0.64548283D-07 -0.17535882D-02 -0.16959941D-02 -0.52856729D-03
MO    3     MO 0.0        OCC NO =    2.0000000  ORB. ENERGY =  -18.876986
  0.14886941D-05  0.14398001D-05  0.44872280D-06  0.40159551D-06 -0.53716643D-06
 -0.40540752D-06  0.99464050D-05  0.62545664D-05  0.99082839D-06 -0.69875027D-05
 -0.43939292D-05 -0.69607221D-06 -0.13067185D-05 -0.82169965D-06 -0.13017103D-06
 -0.59972678D-06  0.23648920D-06  0.46706327D-06 -0.10372630D-06 -0.11823072D-05
 -0.28411950D-06  0.62377297D-07  0.71099740D-06  0.17085934D-06  0.10846736D-07
  0.12363475D-06  0.29710588D-07 -0.43505808D-02 -0.42076924D-02 -0.13113539D-02
 -0.62680634D-04  0.83840412D-04  0.63275610D-04 -0.91412144D-03 -0.57482409D-03
 -0.91061793D-04 -0.12577841D-03 -0.79092837D-04 -0.12529634D-04  0.20097876D-03
  0.12638084D-03  0.20020848D-04  0.42246676D+01  0.40859146D+01  0.12734011D+01
 -0.68962602D-02  0.92243052D-02  0.69617207D-02  0.93528381D-02  0.58813155D-02
  0.93169919D-03 -0.16747565D-02 -0.10531318D-02 -0.16683378D-03 -0.21465132D-02
 -0.13497851D-02 -0.21382864D-03 -0.43704042D-04 -0.42268647D-04 -0.13173291D-04
 -0.18751566D-04  0.25081734D-04  0.18929559D-04 -0.19126861D-03 -0.12027483D-03
 -0.19053554D-04  0.48347016D-04  0.30401901D-04  0.48161719D-05  0.72390368D-04
  0.45521006D-04  0.72112921D-05 -0.96010343D-05 -0.92857024D-05 -0.28939478D-05
 -0.19332197D-05  0.25858376D-05  0.19515702D-05 -0.86051086D-05 -0.54111232D-05
 -0.85721282D-06 -0.10055779D-04 -0.63233437D-05 -0.10017239D-05 -0.29839333D-04
 -0.18763773D-04 -0.29724969D-05 -0.57321628D-04 -0.55438983D-04 -0.17277909D-04
 -0.22277283D-04  0.29797666D-04  0.22488743D-04 -0.37031030D-03 -0.23286105D-03
 -0.36889103D-04  0.24592500D-03  0.15464424D-03  0.24498246D-04  0.85951872D-04
  0.54048844D-04  0.85622449D-05  0.58283258D-05  0.56369030D-05  0.17567764D-05
  0.10809834D-05 -0.14459027D-05 -0.10912443D-05  0.16806260D-04  0.10568227D-04
  0.16741847D-05 -0.20165530D-05 -0.12680627D-05 -0.20088243D-06  0.89768020D-05
  0.56448540D-05  0.89423971D-06  0.18452006D-02  0.17845977D-02  0.55618114D-03
  0.12620690D-02 -0.16881193D-02 -0.12740488D-02  0.60870796D-02  0.38277190D-02
  0.60637500D-03 -0.10455815D-02 -0.65748974D-03 -0.10415742D-03 -0.13980366D-02
 -0.87912293D-03 -0.13926784D-03  0.26930583D-06  0.26046087D-06  0.81174278D-07
  0.11052273D-06 -0.14783309D-06 -0.11157183D-06  0.49264752D-06  0.30978998D-06
  0.49075937D-07  0.20989490D-07  0.13198755D-07  0.20909045D-08 -0.11318044D-06
 -0.71170900D-07 -0.11274666D-07  0.57509891D-06  0.55621063D-06  0.17334656D-06
  0.14965643D-04  0.14474119D-04  0.45109506D-05  0.92588805D-05  0.89547861D-05
  0.27908157D-05 -0.50821507D-05 -0.49152349D-05 -0.15318640D-05 -0.14782792D-05
 -0.14297273D-05 -0.44558354D-06 -0.93553525D-04 -0.90480897D-04 -0.28198943D-04
 -0.80848402D-05 -0.78193054D-05 -0.24369360D-05  0.14376094D-06  0.13903932D-06
  0.43332484D-07 -0.93277960D-08 -0.90214382D-08 -0.28115882D-08 -0.10908416D-09
 -0.10550145D-09 -0.32880193D-10 -0.38230523D-04 -0.36974898D-04 -0.11523461D-04
MO    4     MO 0.0        OCC NO =    2.0000000  ORB. ENERGY =  -14.110545
 -0.77461968D-05 -0.74917843D-05 -0.23348619D-05 -0.24682582D-05  0.33014947D-05
  0.24916873D-05 -0.64754425D-04 -0.40719320D-04 -0.64506245D-05  0.16782307D-04
  0.10553165D-04  0.16717986D-05 -0.32414292D-04 -0.20382977D-04 -0.32290060D-05
  0.24892982D-05 -0.98160057D-06 -0.19386491D-05  0.56597512D-06  0.64511747D-05
  0.15502777D-05 -0.17215663D-06 -0.19622991D-05 -0.47155886D-06  0.35971677D-06
  0.41001726D-05  0.98530990D-06  0.25106324D-04  0.24281743D-04  0.75675587D-05
  0.35924480D-05 -0.48051895D-05 -0.36265482D-05 -0.86024202D-04 -0.54094327D-04
 -0.85694502D-05 -0.49833643D-04 -0.31336732D-04 -0.49642648D-05  0.15539340D-04
  0.97715543D-05  0.15479784D-05 -0.10810113D-03 -0.10455071D-03 -0.32583889D-04
 -0.16856009D-04  0.22546274D-04  0.17016009D-04 -0.67658551D-04 -0.42545513D-04
 -0.67399240D-05  0.25741699D-03  0.16187071D-03  0.25643040D-04  0.51709566D-04
  0.32516363D-04  0.51511382D-05  0.34289992D+01  0.33163787D+01  0.10335704D+01
 -0.67898147D-02  0.90819257D-02  0.68542648D-02 -0.45516516D-02 -0.28622007D-02
 -0.45342068D-03 -0.48293506D-02 -0.30368253D-02 -0.48108415D-03 -0.41570241D-03
 -0.26140483D-03 -0.41410917D-04 -0.33876138D-04 -0.32763526D-04 -0.10210960D-04
 -0.55424408D-04  0.74134624D-04  0.55950507D-04 -0.78737847D-04 -0.49512471D-04
 -0.78436073D-05  0.15199730D-03  0.95579978D-04  0.15141474D-04 -0.10514901D-03
 -0.66120518D-04 -0.10474601D-04  0.15839208D-02  0.15318992D-02  0.47742608D-03
  0.92466924D-03 -0.12368198D-02 -0.93344636D-03  0.18919665D-02  0.11897193D-02
  0.18847153D-03 -0.39878214D-02 -0.25076491D-02 -0.39725375D-03  0.48741054D-03
  0.30649683D-03  0.48554247D-04  0.23045277D-04  0.22288388D-04  0.69463171D-05
  0.77557556D-05 -0.10373950D-04 -0.78293745D-05  0.64763836D-04  0.40725238D-04
  0.64515619D-05 -0.14300073D-04 -0.89922696D-05 -0.14245266D-05  0.59895001D-04
  0.37663584D-04  0.59665445D-05 -0.74768105D-04 -0.72312456D-04 -0.22536634D-04
 -0.68641295D-04  0.91813278D-04  0.69292850D-04 -0.46040818D-04 -0.28951702D-04
 -0.45864360D-05  0.32917142D-03  0.20699182D-03  0.32790983D-04 -0.25070528D-04
 -0.15765021D-04 -0.24974441D-05  0.10673084D-05  0.10322542D-05  0.32170856D-06
  0.10350439D-05 -0.13844549D-05 -0.10448687D-05 -0.19222809D-05 -0.12087818D-05
 -0.19149135D-06 -0.26121310D-05 -0.16425781D-05 -0.26021197D-06  0.75516997D-06
  0.47487114D-06  0.75227567D-07 -0.69531851D-04 -0.67248179D-04 -0.20958320D-04
  0.19985591D-04  0.19329193D-04  0.60240653D-05  0.10908143D-03  0.10549881D-03
  0.32879371D-04 -0.67371423D-05 -0.65158707D-05 -0.20307123D-05 -0.60655999D-05
 -0.58663842D-05 -0.18282957D-05 -0.21516471D-02 -0.20809794D-02 -0.64855039D-03
 -0.21534981D-02 -0.20827697D-02 -0.64910833D-03  0.46486513D-05  0.44959731D-05
  0.14011984D-05  0.36060519D-06  0.34876164D-06  0.10869377D-06  0.24025248D-06
  0.23236174D-06  0.72417006D-07 -0.13029237D-05 -0.12601311D-05 -0.39272781D-06
MO    5     MO 0.0        OCC NO =    2.0000000  ORB. ENERGY =  -10.101011
  0.72923778D-06  0.70528703D-06  0.21980716D-06  0.65689048D-06 -0.87864409D-06
 -0.66312580D-06  0.40240719D-04  0.25304444D-04  0.40086490D-05  0.17620584D-04
  0.11080296D-04  0.17553050D-05  0.28205690D-04  0.17736495D-04  0.28097587D-05
  0.15578949D-06 -0.61432194D-07 -0.12132783D-06 -0.39094613D-06 -0.44561355D-05
 -0.10708511D-05 -0.20982228D-06 -0.23916249D-05 -0.57472988D-06 -0.38983848D-06
 -0.44435100D-05 -0.10678171D-05  0.26264614D-02  0.25401991D-02  0.79166910D-03
  0.12808601D-02 -0.17132539D-02 -0.12930183D-02  0.19131255D-02  0.12030247D-02
  0.19057932D-03 -0.61709733D-02 -0.38804736D-02 -0.61473222D-03 -0.64659433D-03
 -0.40659586D-03 -0.64411616D-04  0.23505533D-02  0.22733528D-02  0.70850477D-03
  0.18119703D-02 -0.24236566D-02 -0.18291698D-02 -0.51767207D-02 -0.32552609D-02
 -0.51568802D-03  0.10106609D-02  0.63553067D-03  0.10067874D-03  0.11812535D-02
  0.74280389D-03  0.11767262D-03 -0.15577507D-03 -0.15065886D-03 -0.46953786D-04
 -0.11675602D-03  0.15617060D-03  0.11786428D-03 -0.70427639D-04 -0.44286790D-04
 -0.70157715D-05 -0.13082099D-03 -0.82263748D-04 -0.13031960D-04  0.71714708D-04
  0.45096133D-04  0.71439851D-05 -0.10284306D-02 -0.99465326D-03 -0.30998998D-03
 -0.36112240D-04  0.48303039D-04  0.36455024D-04  0.65121385D-04  0.40950074D-04
  0.64871798D-05  0.23015616D-03  0.14472837D-03  0.22927406D-04  0.13913564D-04
  0.87492226D-05  0.13860238D-05 -0.27358343D-01 -0.26459798D-01 -0.82463633D-02
  0.10985731D-02 -0.14694303D-02 -0.11090010D-02  0.32907334D-02  0.20693014D-02
  0.32781211D-03  0.30013703D-02  0.18873422D-02  0.29898671D-03 -0.53877079D-03
 -0.33879353D-03 -0.53670587D-04  0.24413415D-03  0.23611592D-03  0.73587021D-04
 -0.29260478D-04  0.39138253D-04  0.29538224D-04 -0.19601826D-04 -0.12326154D-04
 -0.19526699D-05 -0.69563105D-04 -0.43743147D-04 -0.69296494D-05  0.51451734D-05
  0.32354231D-05  0.51254538D-06  0.26839361D+01  0.25957861D+01  0.80899316D+00
 -0.60346617D-02  0.80718475D-02  0.60919437D-02 -0.70399161D-03 -0.44268882D-03
 -0.70129346D-04  0.12167472D-03  0.76512331D-04  0.12120839D-04  0.21993650D-03
  0.13830197D-03  0.21909356D-04  0.55094320D-05  0.53284828D-05  0.16606553D-05
 -0.39191405D-06  0.52421671D-06  0.39563417D-06 -0.60567449D-06 -0.38086437D-06
 -0.60335315D-07 -0.25270575D-05 -0.15890816D-05 -0.25173722D-06 -0.23311866D-07
 -0.14659127D-07 -0.23222519D-08 -0.52810951D-04 -0.51076453D-04 -0.15918299D-04
 -0.10199986D-03 -0.98649825D-04 -0.30744842D-04 -0.44572144D-05 -0.43108237D-05
 -0.13434955D-05 -0.10446092D-03 -0.10103006D-03 -0.31486656D-04 -0.24752234D-05
 -0.23939283D-05 -0.74608290D-06 -0.16292932D-03 -0.15757814D-03 -0.49110224D-04
 -0.91189131D-04 -0.88194158D-04 -0.27486267D-04  0.10285325D-05  0.99475185D-06
  0.31002070D-06 -0.76557041D-07 -0.74042637D-07 -0.23075856D-07 -0.68263642D-07
 -0.66021622D-07 -0.20576056D-07 -0.46798912D-03 -0.45261870D-03 -0.14106148D-03
MO    6     MO 0.0        OCC NO =    2.0000000  ORB. ENERGY =  -10.053161
  0.41133852D-04  0.39782871D-04  0.12398583D-04  0.11539845D-04 -0.15435475D-04
 -0.11649383D-04  0.37284122D-03  0.23445256D-03  0.37141225D-04 -0.22504972D-03
 -0.14151730D-03 -0.22418718D-04  0.17369647D-03  0.10922500D-03  0.17303076D-04
 -0.43022818D-04  0.16965112D-04  0.33505888D-04 -0.48349162D-05 -0.55110000D-04
 -0.13243449D-04  0.27973045D-05  0.31884616D-04  0.76621721D-05 -0.19826863D-05
 -0.22599325D-04 -0.54308297D-05 -0.61900742D-04 -0.59867703D-04 -0.18658148D-04
 -0.59166645D-04  0.79140168D-04  0.59728265D-04 -0.90973291D-05 -0.57206447D-05
 -0.90624623D-06  0.18854170D-03  0.11856008D-03  0.18781909D-04 -0.26877137D-04
 -0.16901065D-04 -0.26774127D-05 -0.86987862D-04 -0.84130873D-04 -0.26219918D-04
 -0.28210129D-04  0.37733327D-04  0.28477904D-04  0.24407545D-03  0.15348119D-03
  0.24313999D-04  0.54769480D-03  0.34440519D-03  0.54559568D-04 -0.40746796D-04
 -0.25622679D-04 -0.40590628D-05  0.26763919D-02  0.25884897D-02  0.80671918D-03
  0.11534257D-02 -0.15428001D-02 -0.11643742D-02 -0.26503791D-02 -0.16666295D-02
 -0.26402212D-03  0.51612668D-02  0.32455431D-02  0.51414855D-03 -0.59895352D-03
 -0.37663804D-03 -0.59665794D-04 -0.38113053D-01 -0.36861286D-01 -0.11488053D-01
  0.12227351D-02 -0.16355070D-02 -0.12343415D-02  0.30510002D-02  0.19185508D-02
  0.30393068D-03 -0.30578059D-04 -0.19228304D-04 -0.30460864D-05  0.37204118D-02
  0.23394948D-02  0.37061528D-03  0.26816497D+01  0.25935748D+01  0.80830398D+00
 -0.68954878D-02  0.92232720D-02  0.69609410D-02  0.41843236D-03  0.26312150D-03
  0.41682866D-04 -0.30904748D-03 -0.19433735D-03 -0.30786301D-04 -0.28309729D-03
 -0.17801917D-03 -0.28201228D-04 -0.10263070D-02 -0.99259946D-03 -0.30934990D-03
 -0.41161056D-04  0.55056238D-04  0.41551764D-04 -0.53696351D-04 -0.33765707D-04
 -0.53490552D-05  0.85754880D-04  0.53924970D-04  0.85426212D-05  0.76249999D-04
  0.47948045D-04  0.75957760D-05  0.31448277D-01  0.30415404D-01  0.94791529D-02
  0.10515165D-02 -0.14064882D-02 -0.10614976D-02 -0.33533809D-02 -0.21086959D-02
 -0.33405286D-03 -0.34389614D-02 -0.21625112D-02 -0.34257811D-03  0.56899584D-03
  0.35779985D-03  0.56681508D-04 -0.34644770D-04 -0.33506913D-04 -0.10442641D-04
  0.25228090D-05 -0.33744608D-05 -0.25467559D-05  0.34700781D-05  0.21820782D-05
  0.34567785D-06 -0.37964254D-06 -0.23872942D-06 -0.37818750D-07  0.21810680D-05
  0.13715141D-05  0.21727087D-06  0.54568688D-04  0.52776460D-04  0.16448117D-04
  0.56539962D-04  0.54682990D-04  0.17042300D-04 -0.25440107D-02 -0.24604564D-02
 -0.76681678D-03 -0.28529564D-04 -0.27592552D-04 -0.85993932D-05 -0.37887401D-04
 -0.36643045D-04 -0.11420037D-04 -0.15681444D-03 -0.15166410D-03 -0.47267074D-04
 -0.13701502D-03 -0.13251496D-03 -0.41299125D-04  0.43959402D-05  0.42515620D-05
  0.13250262D-05  0.51707686D-06  0.50009422D-06  0.15585753D-06  0.54988232D-06
  0.53182224D-06  0.16574576D-06 -0.44221661D-04 -0.42769266D-04 -0.13329312D-04
MO    7     MO 0.0        OCC NO =    2.0000000  ORB. ENERGY =  -10.018536
  0.43852938D-04  0.42412652D-04  0.13218171D-04 -0.49408433D-05  0.66087771D-05
  0.49877427D-05  0.34716369D-03  0.21830585D-03  0.34583314D-04  0.71744618D-04
  0.45114941D-04  0.71469647D-05 -0.55476183D-03 -0.34884912D-03 -0.55263562D-04
 -0.81388748D-04  0.32093882D-04  0.63385022D-04 -0.79298633D-05 -0.90387248D-04
 -0.21720903D-04  0.10231296D-05  0.11661975D-04  0.28024819D-05  0.97621659D-05
  0.11127245D-03  0.26739812D-04 -0.38738316D-04 -0.37466013D-04 -0.11676520D-04
 -0.13413456D-04  0.17941581D-04  0.13540779D-04 -0.13325559D-04 -0.83794692D-05
 -0.13274487D-05  0.93363541D-04  0.58709500D-04  0.93005712D-05 -0.12553706D-04
 -0.78941073D-05 -0.12505592D-05 -0.22363951D-04 -0.21629440D-04 -0.67409516D-05
 -0.15154933D-05  0.20270947D-05  0.15298786D-05  0.38882970D-04  0.24450655D-04
  0.38733946D-05  0.10107027D-04  0.63555697D-05  0.10068290D-05  0.64075102D-04
  0.40292144D-04  0.63829525D-05  0.15319456D-04  0.14816311D-04  0.46175969D-05
 -0.42624975D-04  0.57014348D-04  0.43029579D-04  0.37554687D-04  0.23615395D-04
  0.37410753D-05 -0.69904369D-04 -0.43957743D-04 -0.69636450D-05 -0.63259255D-04
 -0.39779117D-04 -0.63016805D-05  0.26777021D+01  0.25897569D+01  0.80711411D+00
 -0.71841163D-02  0.96093359D-02  0.72523092D-02  0.11407758D-03  0.71735045D-04
  0.11364036D-04  0.29793615D-03  0.18735025D-03  0.29679427D-04  0.40980793D-03
  0.25769823D-03  0.40823728D-04  0.42090264D-01  0.40707871D-01  0.12686865D-01
  0.10214524D-02 -0.13662751D-02 -0.10311482D-02 -0.30047315D-02 -0.18894558D-02
 -0.29932154D-03 -0.56987599D-04 -0.35835332D-04 -0.56769186D-05 -0.37607479D-02
 -0.23648592D-02 -0.37463343D-03 -0.13826230D+00 -0.13372128D+00 -0.41675082D-01
  0.14804280D-02 -0.19801921D-02 -0.14944805D-02  0.29832082D-02  0.18759214D-02
  0.29717746D-03 -0.37800201D-02 -0.23769781D-02 -0.37655326D-03 -0.10295115D-03
 -0.64738449D-04 -0.10255658D-04  0.17092153D-02  0.16530786D-02  0.51519240D-03
  0.56827959D-05 -0.76011987D-05 -0.57367380D-05 -0.75016880D-04 -0.47172627D-04
 -0.74729367D-05  0.52473068D-04  0.32996473D-04  0.52271957D-05 -0.37449195D-04
 -0.23549059D-04 -0.37305666D-05  0.17255746D-03  0.16689006D-03  0.52012343D-04
  0.82462370D-05 -0.11030008D-04 -0.83245117D-05 -0.16082807D-04 -0.10113301D-04
 -0.16021167D-05 -0.53974688D-04 -0.33940732D-04 -0.53767822D-05  0.39936632D-04
  0.25113226D-04  0.39783569D-05 -0.25487479D-02 -0.24650380D-02 -0.76824467D-03
 -0.25455288D-02 -0.24619247D-02 -0.76727439D-03 -0.97683577D-05 -0.94475303D-05
 -0.29443825D-05  0.15385911D-03  0.14880583D-03  0.46376278D-04  0.17243558D-03
  0.16677218D-03  0.51975605D-04  0.32089205D-06  0.31035282D-06  0.96723419D-07
 -0.47182028D-04 -0.45632403D-04 -0.14221627D-04  0.68667957D-04  0.66412659D-04
  0.20697925D-04  0.52608680D-05  0.50880825D-05  0.15857331D-05  0.11209250D-06
  0.10841099D-06  0.33786969D-07 -0.43546082D-06 -0.42115875D-06 -0.13125679D-06
MO    8     MO 0.0        OCC NO =    2.0000000  ORB. ENERGY =  -10.008663
 -0.10581417D-02 -0.10233886D-02 -0.31894553D-03 -0.18735500D-03  0.25060245D-03
  0.18913341D-03 -0.82894977D-02 -0.52126586D-02 -0.82577270D-03  0.10957004D-02
  0.68900583D-03  0.10915010D-03  0.11007289D-01  0.69216788D-02  0.10965102D-02
  0.13718568D-02 -0.54096188D-03 -0.10683931D-02  0.11984277D-03  0.13660082D-02
  0.32826456D-03 -0.15683971D-04 -0.17877117D-03 -0.42960388D-04 -0.15909610D-03
 -0.18134309D-02 -0.43578443D-03 -0.16032400D-03 -0.15505839D-03 -0.48324928D-04
 -0.51391220D-04  0.68739909D-04  0.51879035D-04  0.31324570D-03  0.19697730D-03
  0.31204514D-04 -0.43855767D-04 -0.27577683D-04 -0.43687683D-05  0.20223429D-03
  0.12717035D-03  0.20145919D-04  0.11675603D-04  0.11292135D-04  0.35192652D-05
  0.45116706D-05 -0.60347239D-05 -0.45544961D-05 -0.24157630D-04 -0.15190966D-04
 -0.24065043D-05  0.28456214D-05  0.17894031D-05  0.28347151D-06 -0.25195019D-05
 -0.15843304D-05 -0.25098456D-06  0.54397703D-04  0.52611090D-04  0.16396579D-04
  0.13918696D-04 -0.18617381D-04 -0.14050815D-04 -0.64731675D-04 -0.40705014D-04
 -0.64483581D-05  0.51464199D-04  0.32362069D-04  0.51266955D-05 -0.74312913D-04
 -0.46729954D-04 -0.74028098D-05  0.14229666D+00  0.13762313D+00  0.42891120D-01
  0.74874487D-03 -0.10015067D-02 -0.75585208D-03 -0.29519289D-02 -0.18562521D-02
 -0.29406152D-03  0.38308483D-02  0.24089402D-02  0.38161660D-03  0.51055394D-04
  0.32105002D-04  0.50859717D-05  0.33352701D-02  0.32257280D-02  0.10053185D-02
  0.24698672D-04 -0.33036469D-04 -0.24933116D-04 -0.12754603D-03 -0.80204365D-04
 -0.12705719D-04  0.62355760D-04  0.39210975D-04  0.62116772D-05 -0.17500975D-03
 -0.11005082D-03 -0.17433900D-04  0.26784165D+01  0.25904478D+01  0.80732944D+00
 -0.69160595D-02  0.92507883D-02  0.69817079D-02 -0.51212653D-03 -0.32203891D-03
 -0.51016373D-04 -0.76519979D-03 -0.48117816D-03 -0.76226705D-04  0.10336392D-02
  0.64998005D-03  0.10296776D-03 -0.21892751D-03 -0.21173716D-03 -0.65989223D-04
 -0.12455579D-04  0.16660343D-04  0.12573810D-04  0.16858111D-04  0.10600833D-04
  0.16793500D-05  0.67070722D-05  0.42175870D-05  0.66813664D-06  0.35728175D-04
  0.22466835D-04  0.35591241D-05  0.10321632D-02  0.99826335D-03  0.31111508D-03
 -0.52293450D-04  0.69946714D-04  0.52789828D-04 -0.61360547D-04 -0.38585159D-04
 -0.61125374D-05 -0.15783038D-03 -0.99247976D-04 -0.15722547D-04 -0.13125296D-03
 -0.82535383D-04 -0.13074991D-04 -0.10910727D-03 -0.10552380D-03 -0.32887161D-04
 -0.92085564D-04 -0.89061149D-04 -0.27756470D-04 -0.36823685D-04 -0.35614265D-04
 -0.11099411D-04 -0.25524618D-02 -0.24686299D-02 -0.76936411D-03 -0.25359836D-02
 -0.24526929D-02 -0.76439726D-03 -0.68808608D-05 -0.66548690D-05 -0.20740320D-05
 -0.48850625D-05 -0.47246198D-05 -0.14724576D-05 -0.12340492D-04 -0.11935186D-04
 -0.37196762D-05 -0.43582406D-04 -0.42151006D-04 -0.13136627D-04  0.13823490D-04
  0.13369478D-04  0.41666822D-05  0.13253927D-04  0.12818621D-04  0.39950042D-05
MO    9     MO 0.0        OCC NO =    2.0000000  ORB. ENERGY =  -10.002157