 opt pirrolisyne m062x
GAUSSIAN             69 MOL ORBITALS    333 PRIMITIVES       39 NUCLEI
  O    1    (CENTRE  1)   3.33652008  2.80689632 -2.84079472  CHARGE =  8.0
  O    2    (CENTRE  2)  -2.40946024 -3.04162659 -0.19471999  CHARGE =  8.0
  O    3    (CENTRE  3)  -6.25702801 -4.28291309  1.48945561  CHARGE =  8.0
  N    4    (CENTRE  4)   7.05517366 -0.82198953 -1.67583437  CHARGE =  7.0
  N    5    (CENTRE  5)   2.87054801  3.98386715  1.41083909  CHARGE =  7.0
  N    6    (CENTRE  6)  -8.99262315 -0.63300210 -1.37768359  CHARGE =  7.0
  C    7    (CENTRE  7)   3.63335652 -2.17964282  1.25341718  CHARGE =  6.0
  C    8    (CENTRE  8)   5.35516046  0.10285339  0.46069663  CHARGE =  6.0
  C    9    (CENTRE  9)   3.62417047 -3.82702530 -1.18343246  CHARGE =  6.0
  C   10    (CENTRE 10)   4.78317081 -3.61805155  3.52261696  CHARGE =  6.0
  C   11    (CENTRE 11)   3.74970829  2.38090500 -0.57654930  CHARGE =  6.0
  C   12    (CENTRE 12)  -1.82361106  5.04818703  1.34974500  CHARGE =  6.0
  C   13    (CENTRE 13)  -2.59463337  2.72101435 -0.24045751  CHARGE =  6.0
  C   14    (CENTRE 14)   6.01752301 -2.88752357 -2.51598298  CHARGE =  6.0
  C   15    (CENTRE 15)   0.93607843  5.90654765  0.81310920  CHARGE =  6.0
  C   16    (CENTRE 16)  -5.41614708  2.05000059  0.12865349  CHARGE =  6.0
  C   17    (CENTRE 17)  -6.16191163 -0.44454933 -1.24311215  CHARGE =  6.0
  C   18    (CENTRE 18)  -5.02994839 -2.78765129  0.17115155  CHARGE =  6.0
  H   19    (CENTRE 19)   1.71600424 -1.53632596  1.72629459  CHARGE =  1.0
  H   20    (CENTRE 20)   6.53722736  0.77807542  2.03833176  CHARGE =  1.0
  H   21    (CENTRE 21)   3.69733716 -5.86070803 -0.77575822  CHARGE =  1.0
  H   22    (CENTRE 22)   1.94021379 -3.44732494 -2.34394953  CHARGE =  1.0
  H   23    (CENTRE 23)   4.88197719 -2.39439948  5.19061033  CHARGE =  1.0
  H   24    (CENTRE 24)   3.63533896 -5.27753979  3.98989536  CHARGE =  1.0
  H   25    (CENTRE 25)   6.69931727 -4.25277273  3.05912235  CHARGE =  1.0
  H   26    (CENTRE 26)  -2.03370847  4.61628361  3.37052967  CHARGE =  1.0
  H   27    (CENTRE 27)  -3.09041019  6.63507709  0.91716692  CHARGE =  1.0
  H   28    (CENTRE 28)  -2.24090179  3.11183636 -2.24799263  CHARGE =  1.0
  H   29    (CENTRE 29)  -1.43355322  1.08202844  0.28007471  CHARGE =  1.0
  H   30    (CENTRE 30)   6.84937098 -3.90637268 -4.12293126  CHARGE =  1.0
  H   31    (CENTRE 31)   1.33655411  7.64922168  1.88513231  CHARGE =  1.0
  H   32    (CENTRE 32)   1.16077916  6.30506303 -1.21825621  CHARGE =  1.0
  H   33    (CENTRE 33)  -5.84969901  1.87253651  2.15224328  CHARGE =  1.0
  H   34    (CENTRE 34)  -6.61089620  3.56471842 -0.63693035  CHARGE =  1.0
  H   35    (CENTRE 35)   2.76666152  3.17851270  3.19767676  CHARGE =  1.0
  H   36    (CENTRE 36)  -5.40252882 -0.40998777 -3.18392612  CHARGE =  1.0
  H   37    (CENTRE 37)  -9.35055415 -2.33165262 -2.35769545  CHARGE =  1.0
  H   38    (CENTRE 38)  -9.53832076 -1.10723811  0.48199521  CHARGE =  1.0
  H   39    (CENTRE 39)  -1.99965218 -4.62039786  0.82645778  CHARGE =  1.0
CENTRE ASSIGNMENTS    1  1  1  1  1  1  1  1  1  1  1  1  1  1  1  2  2  2  2  2
CENTRE ASSIGNMENTS    2  2  2  2  2  2  2  2  2  2  3  3  3  3  3  3  3  3  3  3
CENTRE ASSIGNMENTS    3  3  3  3  3  4  4  4  4  4  4  4  4  4  4  4  4  4  4  4
CENTRE ASSIGNMENTS    5  5  5  5  5  5  5  5  5  5  5  5  5  5  5  6  6  6  6  6
CENTRE ASSIGNMENTS    6  6  6  6  6  6  6  6  6  6  7  7  7  7  7  7  7  7  7  7
CENTRE ASSIGNMENTS    7  7  7  7  7  8  8  8  8  8  8  8  8  8  8  8  8  8  8  8
CENTRE ASSIGNMENTS    9  9  9  9  9  9  9  9  9  9  9  9  9  9  9 10 10 10 10 10
CENTRE ASSIGNMENTS   10 10 10 10 10 10 10 10 10 10 11 11 11 11 11 11 11 11 11 11
CENTRE ASSIGNMENTS   11 11 11 11 11 12 12 12 12 12 12 12 12 12 12 12 12 12 12 12
CENTRE ASSIGNMENTS   13 13 13 13 13 13 13 13 13 13 13 13 13 13 13 14 14 14 14 14
CENTRE ASSIGNMENTS   14 14 14 14 14 14 14 14 14 14 15 15 15 15 15 15 15 15 15 15
CENTRE ASSIGNMENTS   15 15 15 15 15 16 16 16 16 16 16 16 16 16 16 16 16 16 16 16
CENTRE ASSIGNMENTS   17 17 17 17 17 17 17 17 17 17 17 17 17 17 17 18 18 18 18 18
CENTRE ASSIGNMENTS   18 18 18 18 18 18 18 18 18 18 19 19 19 20 20 20 21 21 21 22
CENTRE ASSIGNMENTS   22 22 23 23 23 24 24 24 25 25 25 26 26 26 27 27 27 28 28 28
CENTRE ASSIGNMENTS   29 29 29 30 30 30 31 31 31 32 32 32 33 33 33 34 34 34 35 35
CENTRE ASSIGNMENTS   35 36 36 36 37 37 37 38 38 38 39 39 39
TYPE ASSIGNMENTS      1  1  1  1  1  1  2  2  2  3  3  3  4  4  4  1  1  1  1  1
TYPE ASSIGNMENTS      1  2  2  2  3  3  3  4  4  4  1  1  1  1  1  1  2  2  2  3
TYPE ASSIGNMENTS      3  3  4  4  4  1  1  1  1  1  1  2  2  2  3  3  3  4  4  4
TYPE ASSIGNMENTS      1  1  1  1  1  1  2  2  2  3  3  3  4  4  4  1  1  1  1  1
TYPE ASSIGNMENTS      1  2  2  2  3  3  3  4  4  4  1  1  1  1  1  1  2  2  2  3
TYPE ASSIGNMENTS      3  3  4  4  4  1  1  1  1  1  1  2  2  2  3  3  3  4  4  4
TYPE ASSIGNMENTS      1  1  1  1  1  1  2  2  2  3  3  3  4  4  4  1  1  1  1  1
TYPE ASSIGNMENTS      1  2  2  2  3  3  3  4  4  4  1  1  1  1  1  1  2  2  2  3
TYPE ASSIGNMENTS      3  3  4  4  4  1  1  1  1  1  1  2  2  2  3  3  3  4  4  4
TYPE ASSIGNMENTS      1  1  1  1  1  1  2  2  2  3  3  3  4  4  4  1  1  1  1  1
TYPE ASSIGNMENTS      1  2  2  2  3  3  3  4  4  4  1  1  1  1  1  1  2  2  2  3
TYPE ASSIGNMENTS      3  3  4  4  4  1  1  1  1  1  1  2  2  2  3  3  3  4  4  4
TYPE ASSIGNMENTS      1  1  1  1  1  1  2  2  2  3  3  3  4  4  4  1  1  1  1  1
TYPE ASSIGNMENTS      1  2  2  2  3  3  3  4  4  4  1  1  1  1  1  1  1  1  1  1
TYPE ASSIGNMENTS      1  1  1  1  1  1  1  1  1  1  1  1  1  1  1  1  1  1  1  1
TYPE ASSIGNMENTS      1  1  1  1  1  1  1  1  1  1  1  1  1  1  1  1  1  1  1  1
TYPE ASSIGNMENTS      1  1  1  1  1  1  1  1  1  1  1  1  1
EXPONENTS  0.1307093D+03 0.2380887D+02 0.6443608D+01 0.5033151D+01 0.1169596D+01
EXPONENTS  0.3803890D+00 0.5033151D+01 0.1169596D+01 0.3803890D+00 0.5033151D+01
EXPONENTS  0.1169596D+01 0.3803890D+00 0.5033151D+01 0.1169596D+01 0.3803890D+00
EXPONENTS  0.1307093D+03 0.2380887D+02 0.6443608D+01 0.5033151D+01 0.1169596D+01
EXPONENTS  0.3803890D+00 0.5033151D+01 0.1169596D+01 0.3803890D+00 0.5033151D+01
EXPONENTS  0.1169596D+01 0.3803890D+00 0.5033151D+01 0.1169596D+01 0.3803890D+00
EXPONENTS  0.1307093D+03 0.2380887D+02 0.6443608D+01 0.5033151D+01 0.1169596D+01
EXPONENTS  0.3803890D+00 0.5033151D+01 0.1169596D+01 0.3803890D+00 0.5033151D+01
EXPONENTS  0.1169596D+01 0.3803890D+00 0.5033151D+01 0.1169596D+01 0.3803890D+00
EXPONENTS  0.9910617D+02 0.1805231D+02 0.4885660D+01 0.3780456D+01 0.8784966D+00
EXPONENTS  0.2857144D+00 0.3780456D+01 0.8784966D+00 0.2857144D+00 0.3780456D+01
EXPONENTS  0.8784966D+00 0.2857144D+00 0.3780456D+01 0.8784966D+00 0.2857144D+00
EXPONENTS  0.9910617D+02 0.1805231D+02 0.4885660D+01 0.3780456D+01 0.8784966D+00
EXPONENTS  0.2857144D+00 0.3780456D+01 0.8784966D+00 0.2857144D+00 0.3780456D+01
EXPONENTS  0.8784966D+00 0.2857144D+00 0.3780456D+01 0.8784966D+00 0.2857144D+00
EXPONENTS  0.9910617D+02 0.1805231D+02 0.4885660D+01 0.3780456D+01 0.8784966D+00
EXPONENTS  0.2857144D+00 0.3780456D+01 0.8784966D+00 0.2857144D+00 0.3780456D+01
EXPONENTS  0.8784966D+00 0.2857144D+00 0.3780456D+01 0.8784966D+00 0.2857144D+00
EXPONENTS  0.7161684D+02 0.1304510D+02 0.3530512D+01 0.2941249D+01 0.6834831D+00
EXPONENTS  0.2222899D+00 0.2941249D+01 0.6834831D+00 0.2222899D+00 0.2941249D+01
EXPONENTS  0.6834831D+00 0.2222899D+00 0.2941249D+01 0.6834831D+00 0.2222899D+00
EXPONENTS  0.7161684D+02 0.1304510D+02 0.3530512D+01 0.2941249D+01 0.6834831D+00
EXPONENTS  0.2222899D+00 0.2941249D+01 0.6834831D+00 0.2222899D+00 0.2941249D+01
EXPONENTS  0.6834831D+00 0.2222899D+00 0.2941249D+01 0.6834831D+00 0.2222899D+00
EXPONENTS  0.7161684D+02 0.1304510D+02 0.3530512D+01 0.2941249D+01 0.6834831D+00
EXPONENTS  0.2222899D+00 0.2941249D+01 0.6834831D+00 0.2222899D+00 0.2941249D+01
EXPONENTS  0.6834831D+00 0.2222899D+00 0.2941249D+01 0.6834831D+00 0.2222899D+00
EXPONENTS  0.7161684D+02 0.1304510D+02 0.3530512D+01 0.2941249D+01 0.6834831D+00
EXPONENTS  0.2222899D+00 0.2941249D+01 0.6834831D+00 0.2222899D+00 0.2941249D+01
EXPONENTS  0.6834831D+00 0.2222899D+00 0.2941249D+01 0.6834831D+00 0.2222899D+00
EXPONENTS  0.7161684D+02 0.1304510D+02 0.3530512D+01 0.2941249D+01 0.6834831D+00
EXPONENTS  0.2222899D+00 0.2941249D+01 0.6834831D+00 0.2222899D+00 0.2941249D+01
EXPONENTS  0.6834831D+00 0.2222899D+00 0.2941249D+01 0.6834831D+00 0.2222899D+00
EXPONENTS  0.7161684D+02 0.1304510D+02 0.3530512D+01 0.2941249D+01 0.6834831D+00
EXPONENTS  0.2222899D+00 0.2941249D+01 0.6834831D+00 0.2222899D+00 0.2941249D+01
EXPONENTS  0.6834831D+00 0.2222899D+00 0.2941249D+01 0.6834831D+00 0.2222899D+00
EXPONENTS  0.7161684D+02 0.1304510D+02 0.3530512D+01 0.2941249D+01 0.6834831D+00
EXPONENTS  0.2222899D+00 0.2941249D+01 0.6834831D+00 0.2222899D+00 0.2941249D+01
EXPONENTS  0.6834831D+00 0.2222899D+00 0.2941249D+01 0.6834831D+00 0.2222899D+00
EXPONENTS  0.7161684D+02 0.1304510D+02 0.3530512D+01 0.2941249D+01 0.6834831D+00
EXPONENTS  0.2222899D+00 0.2941249D+01 0.6834831D+00 0.2222899D+00 0.2941249D+01
EXPONENTS  0.6834831D+00 0.2222899D+00 0.2941249D+01 0.6834831D+00 0.2222899D+00
EXPONENTS  0.7161684D+02 0.1304510D+02 0.3530512D+01 0.2941249D+01 0.6834831D+00
EXPONENTS  0.2222899D+00 0.2941249D+01 0.6834831D+00 0.2222899D+00 0.2941249D+01
EXPONENTS  0.6834831D+00 0.2222899D+00 0.2941249D+01 0.6834831D+00 0.2222899D+00
EXPONENTS  0.7161684D+02 0.1304510D+02 0.3530512D+01 0.2941249D+01 0.6834831D+00
EXPONENTS  0.2222899D+00 0.2941249D+01 0.6834831D+00 0.2222899D+00 0.2941249D+01
EXPONENTS  0.6834831D+00 0.2222899D+00 0.2941249D+01 0.6834831D+00 0.2222899D+00
EXPONENTS  0.7161684D+02 0.1304510D+02 0.3530512D+01 0.2941249D+01 0.6834831D+00
EXPONENTS  0.2222899D+00 0.2941249D+01 0.6834831D+00 0.2222899D+00 0.2941249D+01
EXPONENTS  0.6834831D+00 0.2222899D+00 0.2941249D+01 0.6834831D+00 0.2222899D+00
EXPONENTS  0.7161684D+02 0.1304510D+02 0.3530512D+01 0.2941249D+01 0.6834831D+00
EXPONENTS  0.2222899D+00 0.2941249D+01 0.6834831D+00 0.2222899D+00 0.2941249D+01
EXPONENTS  0.6834831D+00 0.2222899D+00 0.2941249D+01 0.6834831D+00 0.2222899D+00
EXPONENTS  0.3425251D+01 0.6239137D+00 0.1688554D+00 0.3425251D+01 0.6239137D+00
EXPONENTS  0.1688554D+00 0.3425251D+01 0.6239137D+00 0.1688554D+00 0.3425251D+01
EXPONENTS  0.6239137D+00 0.1688554D+00 0.3425251D+01 0.6239137D+00 0.1688554D+00
EXPONENTS  0.3425251D+01 0.6239137D+00 0.1688554D+00 0.3425251D+01 0.6239137D+00
EXPONENTS  0.1688554D+00 0.3425251D+01 0.6239137D+00 0.1688554D+00 0.3425251D+01
EXPONENTS  0.6239137D+00 0.1688554D+00 0.3425251D+01 0.6239137D+00 0.1688554D+00
EXPONENTS  0.3425251D+01 0.6239137D+00 0.1688554D+00 0.3425251D+01 0.6239137D+00
EXPONENTS  0.1688554D+00 0.3425251D+01 0.6239137D+00 0.1688554D+00 0.3425251D+01
EXPONENTS  0.6239137D+00 0.1688554D+00 0.3425251D+01 0.6239137D+00 0.1688554D+00
EXPONENTS  0.3425251D+01 0.6239137D+00 0.1688554D+00 0.3425251D+01 0.6239137D+00
EXPONENTS  0.1688554D+00 0.3425251D+01 0.6239137D+00 0.1688554D+00 0.3425251D+01
EXPONENTS  0.6239137D+00 0.1688554D+00 0.3425251D+01 0.6239137D+00 0.1688554D+00
EXPONENTS  0.3425251D+01 0.6239137D+00 0.1688554D+00
MO    1     MO 0.0        OCC NO =    2.0000000  ORB. ENERGY =  -19.439743
 -0.11096820D-04 -0.10732361D-04 -0.33448083D-05  0.66821544D-06 -0.89379213D-06
 -0.67455825D-06 -0.69380546D-06 -0.43628349D-06 -0.69114635D-07  0.63392929D-06
  0.39863175D-06  0.63149966D-07 -0.53603618D-05 -0.33707394D-05 -0.53398175D-06
  0.42264901D+01  0.40876772D+01  0.12739505D+01 -0.63811864D-02  0.85353523D-02
  0.64417577D-02 -0.45500540D-02 -0.28611960D-02 -0.45326152D-03 -0.37577928D-02
 -0.23630010D-02 -0.37433906D-03  0.36441470D-02  0.22915374D-02  0.36301802D-03
  0.38685656D-02  0.37415082D-02  0.11660647D-02 -0.59792121D-04  0.79976792D-04
  0.60359678D-04  0.95539162D-03  0.60077589D-03  0.95172995D-04 -0.43192621D-03
 -0.27160679D-03 -0.43027079D-04  0.10527513D-03  0.66199828D-04  0.10487165D-04
  0.21799860D-06  0.21083876D-06  0.65709232D-07  0.31347714D-06 -0.41930100D-06
 -0.31645272D-06  0.38746772D-06  0.24365010D-06  0.38598270D-07  0.72966711D-06
  0.45883426D-06  0.72687055D-07  0.10553308D-05  0.66362035D-06  0.10512861D-06
 -0.28433848D-06 -0.27499980D-06 -0.85705425D-07  0.70402778D-06 -0.94169403D-06
 -0.71071053D-06 -0.71640022D-05 -0.45049168D-05 -0.71365451D-06 -0.24187538D-05
 -0.15209773D-05 -0.24094836D-06 -0.29044454D-05 -0.18263932D-05 -0.28933137D-06
  0.63422402D-05  0.61339386D-05  0.19116807D-05 -0.21149540D-05  0.28289219D-05
  0.21350295D-05 -0.29102049D-04 -0.18300150D-04 -0.28990512D-05  0.59874977D-04
  0.37650992D-04  0.59645497D-05 -0.18438433D-04 -0.11594582D-04 -0.18367765D-05
 -0.39134067D-04 -0.37848766D-04 -0.11795807D-04 -0.18158627D-04  0.24288631D-04
  0.18330992D-04 -0.72347242D-04 -0.45493887D-04 -0.72069961D-05  0.93580347D-05
  0.58845834D-05  0.93221687D-06  0.30191137D-04  0.18984997D-04  0.30075426D-05
  0.96838919D-07  0.93658386D-07  0.29189228D-07  0.14600046D-06 -0.19528741D-06
 -0.14738632D-06  0.23833263D-05  0.14986995D-05  0.23741918D-06 -0.28853498D-05
 -0.18143854D-05 -0.28742913D-06 -0.11068913D-05 -0.69604294D-06 -0.11026490D-06
 -0.42165934D-04 -0.40781055D-04 -0.12709674D-04 -0.20139950D-04  0.26938810D-04
  0.20331122D-04 -0.82650080D-04 -0.51972588D-04 -0.82333312D-05  0.10057248D-04
  0.63242674D-05  0.10018702D-05 -0.48184213D-04 -0.30299526D-04 -0.47999540D-05
  0.66741807D-05  0.64549770D-05  0.20117344D-05  0.48233802D-05 -0.64516606D-05
 -0.48691645D-05  0.42909535D-05  0.26982667D-05  0.42745078D-06  0.72453387D-05
  0.45560634D-05  0.72175699D-06 -0.20397544D-05 -0.12826523D-05 -0.20319368D-06
 -0.86452584D-05 -0.83613175D-05 -0.26058575D-05 -0.29153255D-05  0.38994834D-05
  0.29429983D-05 -0.13711616D-04 -0.86222318D-05 -0.13659064D-05 -0.70706251D-05
 -0.44461988D-05 -0.70435259D-06  0.18728765D-05  0.11777150D-05  0.18656985D-06
  0.57949452D-05  0.56046187D-05  0.17467148D-05  0.41770883D-05 -0.55871930D-05
 -0.42167379D-05  0.38367576D-05  0.24126561D-05  0.38220527D-06  0.11736049D-04
  0.73799427D-05  0.11691069D-05  0.66586955D-05  0.41871664D-05  0.66331751D-06
 -0.74660375D-04 -0.72208264D-04 -0.22504162D-04 -0.44516607D-04  0.59544559D-04
  0.44939167D-04  0.12918129D-03  0.81232661D-04  0.12868618D-04 -0.11150603D-03
 -0.70117984D-04 -0.11107867D-04  0.63787578D-04  0.40111341D-04  0.63543103D-05
 -0.11051002D-05 -0.10688048D-05 -0.33309978D-06 -0.39748786D-06  0.53167212D-06
  0.40126088D-06  0.11119379D-05  0.69921642D-06  0.11076763D-06  0.26201192D-05
  0.16476013D-05  0.26100773D-06  0.30699250D-05  0.19304512D-05  0.30581591D-06
 -0.60876132D-06 -0.58876744D-06 -0.18349310D-06 -0.25579753D-06  0.34214986D-06
  0.25822560D-06 -0.87102701D-06 -0.54772516D-06 -0.86768867D-07 -0.30293994D-05
 -0.19049676D-05 -0.30177888D-06  0.21450670D-06  0.13488757D-06  0.21368457D-07
 -0.19719822D-04 -0.19072153D-04 -0.59439570D-05 -0.33126744D-05  0.44309697D-05
  0.33441189D-05  0.92051362D-05  0.57884367D-05  0.91698562D-06 -0.26473005D-04
 -0.16646936D-04 -0.26371543D-05  0.22335305D-04  0.14045039D-04  0.22249702D-05
 -0.58884581D-04 -0.56950603D-04 -0.17749015D-04 -0.44454159D-04  0.59461028D-04
  0.44876125D-04  0.26896655D-03  0.16913339D-03  0.26793570D-04 -0.85403958D-04
 -0.53704301D-04 -0.85076635D-05 -0.47090630D-04 -0.29611852D-04 -0.46910149D-05
  0.14553013D-02  0.14075040D-02  0.43865753D-03  0.72459200D-03 -0.96920034D-03
 -0.73146996D-03 -0.39976278D-02 -0.25138156D-02 -0.39823063D-03  0.31018676D-03
  0.19505376D-03  0.30899792D-04  0.61697006D-03  0.38796733D-03  0.61460543D-04
 -0.51916502D-04 -0.50211381D-04 -0.15648694D-04  0.63097677D-07  0.61025327D-07
  0.19018929D-07  0.88065249D-05  0.85172875D-05  0.26544665D-05 -0.70528809D-04
 -0.68212394D-04 -0.21258824D-04  0.12629306D-05  0.12214515D-05  0.38067309D-06
  0.12826248D-04  0.12404989D-04  0.38660932D-05  0.13239602D-05  0.12804767D-05
  0.39906864D-06  0.26271509D-05  0.25408659D-05  0.79187693D-06  0.15982906D-05
  0.15457971D-05  0.48175744D-06 -0.32279192D-05 -0.31219029D-05 -0.97296077D-06
 -0.17059875D-03 -0.16499569D-03 -0.51421949D-04  0.40554448D-06  0.39222496D-06
  0.12223939D-06  0.74556692D-07  0.72107987D-07  0.22472910D-07  0.17622540D-06
  0.17043753D-06  0.53117935D-07  0.17662084D-05  0.17081998D-05  0.53237127D-06
  0.46188357D-05  0.44671368D-05  0.13922114D-05  0.36597931D-05  0.35395926D-05
  0.11031364D-05 -0.33202993D-04 -0.32112490D-04 -0.10008060D-04 -0.30959958D-05
 -0.29943124D-05 -0.93319638D-06 -0.18143643D-04 -0.17547741D-04 -0.54688645D-05
 -0.16100536D-02 -0.15571737D-02 -0.48530303D-03
MO    2     MO 0.0        OCC NO =    2.0000000  ORB. ENERGY =  -19.385580
 -0.17384974D-05 -0.16813990D-05 -0.52401863D-06  0.26934036D-07 -0.36026449D-07
 -0.27189698D-07 -0.19295792D-07 -0.12133712D-07 -0.19221838D-08  0.18738324D-07
  0.11783161D-07  0.18666507D-08 -0.13659199D-06 -0.85892709D-07 -0.13606848D-07
 -0.42091224D-02 -0.40708800D-02 -0.12687155D-02 -0.66426062D-04  0.88850224D-04
  0.67056590D-04 -0.23517700D-03 -0.14788561D-03 -0.23427565D-04 -0.67068833D-03
 -0.42174682D-03 -0.66811782D-04  0.52631269D-03  0.33095955D-03  0.52429552D-04
  0.42267535D+01  0.40879320D+01  0.12740298D+01 -0.64160284D-02  0.85819563D-02
  0.64769304D-02  0.50756416D-02  0.31916996D-02  0.50561885D-03  0.61364385D-02
  0.38587572D-02  0.61129197D-03 -0.54143454D-02 -0.34046857D-02 -0.53935941D-03
  0.60154746D-08  0.58179052D-08  0.18131869D-08  0.23053516D-08 -0.30835940D-08
 -0.23272344D-08  0.29727502D-07  0.18693451D-07  0.29613567D-08  0.31230044D-07
  0.19638290D-07  0.31110350D-08 -0.77971969D-07 -0.49030867D-07 -0.77673130D-08
 -0.46121636D-07 -0.44606838D-07 -0.13902003D-07 -0.92256740D-08  0.12340084D-07
  0.93132457D-08 -0.21713741D-06 -0.13654183D-06 -0.21630520D-07 -0.66139232D-07
 -0.41590124D-07 -0.65885744D-08 -0.44121866D-08 -0.27745013D-08 -0.43952762D-09
 -0.37352842D-04 -0.36126043D-04 -0.11258910D-04 -0.15241942D-04  0.20387329D-04
  0.15386621D-04 -0.10861295D-03 -0.68298739D-04 -0.10819668D-04 -0.91403727D-04
 -0.57477116D-04 -0.91053409D-05  0.10525991D-03  0.66190256D-04  0.10485649D-04
  0.89366938D-06  0.86431812D-06  0.26937021D-06  0.60908232D-06 -0.81469681D-06
 -0.61486384D-06  0.19351140D-05  0.12168516D-05  0.19276974D-06 -0.14156349D-05
 -0.89018922D-06 -0.14102093D-06 -0.76698382D-06 -0.48230001D-06 -0.76404424D-07
 -0.59545889D-07 -0.57590191D-07 -0.17948347D-07 -0.44504770D-07  0.59528725D-07
  0.44927217D-07 -0.11074415D-06 -0.69638892D-07 -0.11031970D-07 -0.11888707D-06
 -0.74759378D-07 -0.11843141D-07  0.92492255D-07  0.58161612D-07  0.92137765D-08
  0.25356621D-06  0.24523820D-06  0.76430034D-07  0.28597732D-06 -0.38251777D-06
 -0.28869187D-06 -0.32147538D-06 -0.20215234D-06 -0.32024327D-07 -0.14943429D-06
 -0.93968290D-07 -0.14886156D-07  0.13145638D-05  0.82663301D-06  0.13095256D-06
  0.13868524D-06  0.13413033D-06  0.41802565D-07  0.73958160D-07 -0.98925014D-07
 -0.74660184D-07  0.89014976D-07  0.55975006D-07  0.88673813D-08  0.41303179D-06
  0.25972547D-06  0.41144879D-07 -0.74957295D-07 -0.47135159D-07 -0.74670010D-08
 -0.12419926D-06 -0.12012012D-06 -0.37436193D-07 -0.38196490D-07  0.51090890D-07
  0.38559057D-07 -0.27611018D-06 -0.17362549D-06 -0.27505195D-07  0.79161763D-08
  0.49779041D-08  0.78858364D-09 -0.71277556D-07 -0.44821240D-07 -0.71004374D-08
  0.87177373D-06  0.84314160D-06  0.26277041D-06  0.56824779D-06 -0.76007732D-06
 -0.57364169D-06  0.92735000D-06  0.58314256D-06  0.92379579D-07  0.12465096D-05
  0.78383867D-06  0.12417321D-06  0.27228377D-05  0.17121934D-05  0.27124020D-06
  0.56876409D-05  0.55008387D-05  0.17143711D-05  0.11974150D-05 -0.16016393D-05
 -0.12087810D-05  0.85832932D-05  0.53974051D-05  0.85503965D-06  0.16263599D-04
  0.10226987D-04  0.16201266D-05  0.15909759D-05  0.10004483D-05  0.15848782D-06
 -0.73134986D-07 -0.70732975D-07 -0.22044379D-07 -0.62842872D-07  0.84057419D-07
  0.63439388D-07 -0.23660788D-06 -0.14878538D-06 -0.23570104D-07 -0.16063325D-06
 -0.10101050D-06 -0.16001760D-07  0.11545977D-06  0.72604202D-07  0.11501725D-07
 -0.18770545D-07 -0.18154054D-07 -0.56578257D-08 -0.26667367D-07  0.35669758D-07
  0.26920499D-07 -0.48466600D-07 -0.30477099D-07 -0.48280845D-08 -0.41587817D-07
 -0.26151535D-07 -0.41428426D-08 -0.40675139D-07 -0.25577619D-07 -0.40519246D-08
 -0.11869167D-04 -0.11479342D-04 -0.35776095D-05 -0.22487264D-05  0.30078533D-05
  0.22700717D-05  0.74383188D-05  0.46774145D-05  0.74098104D-06 -0.26555729D-04
 -0.16698955D-04 -0.26453950D-05 -0.17245007D-04 -0.10844123D-04 -0.17178913D-05
 -0.54553225D-04 -0.52761505D-04 -0.16443456D-04 -0.24514293D-04  0.32789847D-04
  0.24746987D-04 -0.33423893D-03 -0.21017841D-03 -0.33295791D-04 -0.17754347D-03
 -0.11164410D-03 -0.17686301D-04  0.18218072D-03  0.11456013D-03  0.18148249D-04
  0.16494798D-02  0.15953051D-02  0.49718691D-03  0.11915605D-02 -0.15938084D-02
 -0.12028710D-02  0.30494908D-02  0.19176017D-02  0.30378032D-03  0.37570243D-02
  0.23625177D-02  0.37426250D-03 -0.33054156D-02 -0.20785340D-02 -0.32927471D-03
  0.25586981D-05  0.24746614D-05  0.77124386D-06 -0.10326191D-07 -0.99870428D-08
 -0.31125250D-08  0.30289705D-06  0.29294884D-06  0.91299357D-07  0.12078367D-05
  0.11681671D-05  0.36406666D-06 -0.26168812D-07 -0.25309336D-07 -0.78878145D-08
  0.32237719D-06  0.31178919D-06  0.97171070D-07 -0.57049989D-08 -0.55176266D-08
 -0.17196032D-08 -0.31754565D-06 -0.30711633D-06 -0.95714746D-07  0.13200892D-06
  0.12767328D-06  0.39790186D-07  0.58116692D-06  0.56207935D-06  0.17517558D-06
 -0.49930240D-05 -0.48290354D-05 -0.15049994D-05 -0.13209608D-07 -0.12775758D-07
 -0.39816458D-08 -0.93938094D-08 -0.90852835D-08 -0.28314860D-08 -0.55060624D-07
 -0.53252238D-07 -0.16596397D-07  0.14113009D-04  0.13649488D-04  0.42539491D-05
  0.11953095D-05  0.11560513D-05  0.36029069D-06  0.16700136D-07  0.16151645D-07
  0.50337622D-08  0.79802616D-05  0.77181616D-05  0.24054138D-05 -0.12514977D-04
 -0.12103941D-04 -0.37722698D-05 -0.76492163D-04 -0.73979890D-04 -0.23056300D-04
 -0.39461922D-04 -0.38165853D-04 -0.11894629D-04
MO    3     MO 0.0        OCC NO =    2.0000000  ORB. ENERGY =  -19.354254
  0.42267637D+01  0.40879418D+01  0.12740329D+01 -0.64158654D-02  0.85817382D-02
  0.64767659D-02  0.16590713D-02  0.10432686D-02  0.16527127D-03 -0.16959166D-02
 -0.10664378D-02 -0.16894167D-03  0.93461858D-02  0.58771325D-02  0.93103652D-03
  0.12615681D-04  0.12201337D-04  0.38026239D-05  0.20987194D-06 -0.28072068D-06
 -0.21186408D-06 -0.81120075D-06 -0.51010480D-06 -0.80809171D-07 -0.24870448D-05
 -0.15639205D-05 -0.24775129D-06 -0.75764517D-06 -0.47642761D-06 -0.75474138D-07
  0.18358038D-05  0.17755095D-05  0.55334875D-06  0.30030771D-07 -0.40168582D-07
 -0.30315828D-07  0.13262543D-07  0.83398429D-08  0.13211712D-08 -0.57965975D-07
 -0.36450560D-07 -0.57743812D-08  0.19959176D-06  0.12550865D-06  0.19882679D-07
  0.56506978D-05  0.54651089D-05  0.17032357D-05  0.95793211D-05 -0.12813116D-04
 -0.96702497D-05  0.34635576D-04  0.21779780D-04  0.34502830D-05  0.21092982D-04
  0.13263833D-04  0.21012140D-05 -0.53944977D-04 -0.33922049D-04 -0.53738225D-05
 -0.83356008D-04 -0.80618302D-04 -0.25125203D-04 -0.52612790D-04  0.70373857D-04
  0.53112200D-04 -0.20741462D-03 -0.13042788D-03 -0.20661967D-04  0.26726593D-03
  0.16806399D-03  0.26624160D-04 -0.55547008D-03 -0.34929449D-03 -0.55334116D-04
  0.10105991D-07  0.97740744D-08  0.30461521D-08  0.10036923D-08 -0.13425195D-08
 -0.10132195D-08 -0.32640552D-07 -0.20525255D-07 -0.32515452D-08 -0.11277056D-06
 -0.70913157D-07 -0.11233835D-07  0.37277442D-07  0.23441056D-07  0.37134570D-08
 -0.15287858D-04 -0.14785751D-04 -0.46080727D-05 -0.27667008D-05  0.37006858D-05
  0.27929628D-05 -0.72607166D-05 -0.45657335D-05 -0.72328889D-06  0.29004307D-04
  0.18238687D-04  0.28893144D-05 -0.18312818D-04 -0.11515592D-04 -0.18242632D-05
 -0.50663220D-04 -0.48999261D-04 -0.15270929D-04 -0.23107271D-04  0.30907841D-04
  0.23326609D-04  0.20269859D-04  0.12746231D-04  0.20192172D-05 -0.35226026D-04
 -0.22151070D-04 -0.35091017D-05 -0.40009780D-03 -0.25159223D-03 -0.39856437D-04
 -0.47003737D-05 -0.45459968D-05 -0.14167886D-05 -0.11943447D-05  0.15975326D-05
  0.12056817D-05 -0.10000330D-04 -0.62884756D-05 -0.99620019D-06  0.69063147D-05
  0.43428760D-05  0.68798452D-06 -0.95081983D-05 -0.59790102D-05 -0.94717567D-06
 -0.53325394D-05 -0.51573999D-05 -0.16073363D-05 -0.24128533D-05  0.32273862D-05
  0.24357565D-05  0.90236787D-06  0.56743313D-06  0.89890941D-07  0.87230542D-05
  0.54852905D-05  0.86896218D-06 -0.81377873D-05 -0.51172590D-05 -0.81065980D-06
  0.16592446D-02  0.16047492D-02  0.50013023D-03  0.11975353D-02 -0.16018002D-02
 -0.12089025D-02  0.10580799D-02  0.66534906D-03  0.10540247D-03 -0.11062160D-02
 -0.69561828D-03 -0.11019762D-03  0.56651988D-02  0.35624291D-02  0.56434861D-03
 -0.12752841D-05 -0.12333993D-05 -0.38439668D-06  0.12507372D-05 -0.16729621D-05
 -0.12626094D-05  0.59751036D-05  0.37573055D-05  0.59522031D-06 -0.10699772D-04
 -0.67283041D-05 -0.10658764D-05  0.13433405D-05  0.84472855D-06  0.13381919D-06
 -0.20275592D-04 -0.19609670D-04 -0.61114777D-05 -0.82844744D-05  0.11081154D-04
  0.83631121D-05  0.15150205D-04  0.95268556D-05  0.15092140D-05  0.17640933D-04
  0.11093092D-04  0.17573321D-05 -0.40744552D-04 -0.25621268D-04 -0.40588393D-05
  0.48721931D-05  0.47121731D-05  0.14685785D-05  0.97645660D-06 -0.13060896D-05
 -0.98572530D-06  0.91609078D-05  0.57606246D-05  0.91257972D-06 -0.12830941D-04
 -0.80684398D-05 -0.12781764D-05 -0.24655334D-05 -0.15503936D-05 -0.24560839D-06
 -0.44533472D-04 -0.43070835D-04 -0.13423298D-04 -0.19655808D-04  0.26291231D-04
  0.19842384D-04 -0.43810769D-04 -0.27549387D-04 -0.43642858D-05  0.69678772D-04
  0.43815882D-04  0.69411718D-05 -0.14532483D-03 -0.91384151D-04 -0.14476785D-04
  0.35740234D-07  0.34566399D-07  0.10772837D-07 -0.75475131D-07  0.10095409D-06
  0.76191554D-07  0.46645776D-06  0.29332115D-06  0.46466999D-07  0.83179258D-07
  0.52305349D-07  0.82860461D-08  0.28028397D-06  0.17625008D-06  0.27920974D-07
  0.28932543D-06  0.27982296D-06  0.87208595D-07  0.16604182D-06 -0.22209435D-06
 -0.16761792D-06 -0.34464998D-06 -0.21672516D-06 -0.34332906D-07  0.41344913D-06
  0.25998791D-06  0.41186453D-07  0.49016483D-06  0.30822880D-06  0.48828620D-07
  0.22022204D-06  0.21298917D-06  0.66379422D-07  0.48701943D-07 -0.65142784D-07
 -0.49164231D-07 -0.51626162D-06 -0.32463916D-06 -0.51428298D-07 -0.40402068D-06
 -0.25405905D-06 -0.40247221D-07 -0.56629337D-07 -0.35610047D-07 -0.56412297D-08
  0.32119052D-05  0.31064148D-05  0.96813382D-06  0.63698491D-05  0.61606407D-05
  0.19200026D-05  0.94841640D-06  0.91726706D-06  0.28587208D-06 -0.40636147D-05
 -0.39301512D-05 -0.12248565D-05 -0.10909785D-06 -0.10551469D-06 -0.32884321D-07
  0.48083609D-06  0.46504373D-06  0.14493382D-06 -0.34580517D-06 -0.33444770D-06
 -0.10423274D-06  0.10780752D-05  0.10426674D-05  0.32495389D-06  0.23689103D-05
  0.22911069D-05  0.71403794D-06 -0.30358204D-04 -0.29361133D-04 -0.91505826D-05
  0.10441037D-04  0.10098117D-04  0.31471419D-05 -0.15055468D-05 -0.14560993D-05
 -0.45380255D-06  0.20292175D-06  0.19625708D-06  0.61164760D-07 -0.11442071D-03
 -0.11066273D-03 -0.34488739D-04  0.47225764D-07  0.45674703D-07  0.14234810D-07
  0.34117148D-06  0.32996620D-06  0.10283605D-06  0.40968636D-05  0.39623081D-05
  0.12348784D-05  0.83580269D-06  0.80835198D-06  0.25192800D-06 -0.24124690D-07
 -0.23332350D-07 -0.72716743D-08 -0.10890612D-07 -0.10532926D-07 -0.32826530D-08
 -0.12270122D-06 -0.11867128D-06 -0.36984655D-07
MO    4     MO 0.0        OCC NO =    2.0000000  ORB. ENERGY =  -14.574269
 -0.16288002D-03 -0.15753047D-03 -0.49095365D-04 -0.61125061D-04  0.81759707D-04
  0.61705270D-04 -0.33896151D-03 -0.21314809D-03 -0.33766239D-04  0.53121784D-03
  0.33404403D-03  0.52918187D-04  0.42338692D-03  0.26623706D-03  0.42176423D-04
 -0.20110398D-05 -0.19449901D-05 -0.60616846D-06 -0.51225836D-06  0.68518695D-06
  0.51712081D-06  0.36090465D-06  0.22694653D-06  0.35952143D-07  0.53536234D-05
  0.33665021D-05  0.53331049D-06 -0.24577437D-06 -0.15454952D-06 -0.24483241D-07
 -0.13220263D-06 -0.12786063D-06 -0.39848573D-07 -0.72689755D-07  0.97228419D-07
  0.73379739D-07  0.57509937D-08  0.36163792D-08  0.57289522D-09 -0.92017487D-08
 -0.57863065D-08 -0.91664817D-09 -0.49041541D-06 -0.30838637D-06 -0.48853583D-07
 -0.15990818D-02 -0.15465623D-02 -0.48199590D-03  0.98463800D-05 -0.13170329D-04
 -0.99398435D-05  0.52378834D-04  0.32937216D-04  0.52178084D-05 -0.48967856D-04
 -0.30792302D-04 -0.48780179D-05  0.26453820D-04  0.16634872D-04  0.26352432D-05
  0.34307081D+01  0.33180315D+01  0.10340855D+01 -0.64234031D-02  0.85918205D-02
  0.64843751D-02 -0.20292968D-02 -0.12760763D-02 -0.20215192D-03 -0.20172361D-02
 -0.12684922D-02 -0.20095047D-03 -0.43313121D-03 -0.27236453D-03 -0.43147117D-04
  0.66931526D-06  0.64733258D-06  0.20174529D-06 -0.13716623D-07  0.18347091D-07
  0.13846823D-07  0.90759972D-07  0.57072306D-07  0.90412121D-08 -0.16438556D-06
 -0.10337005D-06 -0.16375553D-07 -0.78738382D-07 -0.49512808D-07 -0.78436606D-08
 -0.24425850D-04 -0.23623619D-04 -0.73624501D-05 -0.33737861D-05  0.45127115D-05
  0.34058107D-05 -0.88241120D-06 -0.55488384D-06 -0.87902923D-07  0.55822939D-04
  0.35102962D-04  0.55608989D-05  0.11729818D-04  0.73760245D-05  0.11684862D-05
 -0.35985001D-04 -0.34803127D-04 -0.10846614D-04 -0.49862169D-04  0.66694679D-04
  0.50335470D-04 -0.11096850D-03 -0.69779970D-04 -0.11054320D-04  0.18002671D-03
  0.11320562D-03  0.17933673D-04  0.11024891D-03  0.69327473D-04  0.10982637D-04
  0.93848310D-06  0.90766000D-06  0.28287798D-06 -0.65686696D-06  0.87861262D-06
  0.66310205D-06  0.44180782D-05  0.27782061D-05  0.44011453D-06 -0.77519487D-05
 -0.48746334D-05 -0.77222382D-06  0.69254309D-05  0.43548968D-05  0.68988882D-06
  0.60148368D-05  0.58172883D-05  0.18129947D-05  0.42997667D-05 -0.57512854D-05