 opt pirrolisyne b3lyp
GAUSSIAN             69 MOL ORBITALS    333 PRIMITIVES       39 NUCLEI
  O    1    (CENTRE  1)   3.81012986  1.60445905 -3.48862862  CHARGE =  8.0
  O    2    (CENTRE  2)  -4.88521627 -3.60386887 -0.64588855  CHARGE =  8.0
  O    3    (CENTRE  3)  -8.31090937 -4.02590140  2.15378097  CHARGE =  8.0
  N    4    (CENTRE  4)   5.84389791  0.15001967  2.93008371  CHARGE =  7.0
  N    5    (CENTRE  5)   1.69738096  2.03602554  0.48261219  CHARGE =  7.0
  N    6    (CENTRE  6) -11.06955570 -0.00988216 -0.35348241  CHARGE =  7.0
  C    7    (CENTRE  7)   7.93611139 -1.37484075 -1.10865859  CHARGE =  6.0
  C    8    (CENTRE  8)   5.33134329 -0.91684911  0.26790680  CHARGE =  6.0
  C    9    (CENTRE  9)   9.94797288 -0.38239617  0.84348109  CHARGE =  6.0
  C   10    (CENTRE 10)   8.34808433 -4.18896481 -1.85994540  CHARGE =  6.0
  C   11    (CENTRE 11)   3.59730641  1.06299060 -1.19210266  CHARGE =  6.0
  C   12    (CENTRE 12)  -2.50700813  4.34454973  0.57266216  CHARGE =  6.0
  C   13    (CENTRE 13)  -4.00017470  2.15337580 -0.70565542  CHARGE =  6.0
  C   14    (CENTRE 14)   8.30824953  0.41324289  3.11199031  CHARGE =  6.0
  C   15    (CENTRE 15)   0.33068771  4.40012645 -0.25354489  CHARGE =  6.0
  C   16    (CENTRE 16)  -6.80254680  2.04270152  0.20225905  CHARGE =  6.0
  C   17    (CENTRE 17)  -8.25330117 -0.32428539 -0.85182005  CHARGE =  6.0
  C   18    (CENTRE 18)  -7.23391929 -2.83271520  0.41462603  CHARGE =  6.0
  H   19    (CENTRE 19)   7.94991377 -0.20238086 -2.83968091  CHARGE =  1.0
  H   20    (CENTRE 20)   4.23845451 -2.69246787  0.50096805  CHARGE =  1.0
  H   21    (CENTRE 21)  11.31617317 -1.86310940  1.38974791  CHARGE =  1.0
  H   22    (CENTRE 22)  11.03692032  1.24091107  0.10757501  CHARGE =  1.0
  H   23    (CENTRE 23)   6.86145519 -4.81105919 -3.17591252  CHARGE =  1.0
  H   24    (CENTRE 24)  10.19058763 -4.42783318 -2.79699135  CHARGE =  1.0
  H   25    (CENTRE 25)   8.30003221 -5.41638007 -0.18052581  CHARGE =  1.0
  H   26    (CENTRE 26)  -2.60679964  4.14458436  2.64751439  CHARGE =  1.0
  H   27    (CENTRE 27)  -3.37016106  6.17969992  0.07958612  CHARGE =  1.0
  H   28    (CENTRE 28)  -3.96030705  2.40640224 -2.77561823  CHARGE =  1.0
  H   29    (CENTRE 29)  -3.05963809  0.33795054 -0.28724522  CHARGE =  1.0
  H   30    (CENTRE 30)   9.15270300  1.19183923  4.85545012  CHARGE =  1.0
  H   31    (CENTRE 31)   1.26099509  6.09062291  0.57428285  CHARGE =  1.0
  H   32    (CENTRE 32)   0.48790274  4.52547617 -2.33650767  CHARGE =  1.0
  H   33    (CENTRE 33)  -6.87610870  2.01197810  2.28773765  CHARGE =  1.0
  H   34    (CENTRE 34)  -7.83096597  3.74215939 -0.43434034  CHARGE =  1.0
  H   35    (CENTRE 35)   2.27687976  1.89833740  2.37797902  CHARGE =  1.0
  H   36    (CENTRE 36)  -7.95958767 -0.44436239 -2.92188079  CHARGE =  1.0
  H   37    (CENTRE 37) -11.90815665 -1.59567470 -1.26107981  CHARGE =  1.0
  H   38    (CENTRE 38) -11.25826443 -0.52979739  1.58209729  CHARGE =  1.0
  H   39    (CENTRE 39)  -4.47295684 -5.19916128  0.39104880  CHARGE =  1.0
CENTRE ASSIGNMENTS    1  1  1  1  1  1  1  1  1  1  1  1  1  1  1  2  2  2  2  2
CENTRE ASSIGNMENTS    2  2  2  2  2  2  2  2  2  2  3  3  3  3  3  3  3  3  3  3
CENTRE ASSIGNMENTS    3  3  3  3  3  4  4  4  4  4  4  4  4  4  4  4  4  4  4  4
CENTRE ASSIGNMENTS    5  5  5  5  5  5  5  5  5  5  5  5  5  5  5  6  6  6  6  6
CENTRE ASSIGNMENTS    6  6  6  6  6  6  6  6  6  6  7  7  7  7  7  7  7  7  7  7
CENTRE ASSIGNMENTS    7  7  7  7  7  8  8  8  8  8  8  8  8  8  8  8  8  8  8  8
CENTRE ASSIGNMENTS    9  9  9  9  9  9  9  9  9  9  9  9  9  9  9 10 10 10 10 10
CENTRE ASSIGNMENTS   10 10 10 10 10 10 10 10 10 10 11 11 11 11 11 11 11 11 11 11
CENTRE ASSIGNMENTS   11 11 11 11 11 12 12 12 12 12 12 12 12 12 12 12 12 12 12 12
CENTRE ASSIGNMENTS   13 13 13 13 13 13 13 13 13 13 13 13 13 13 13 14 14 14 14 14
CENTRE ASSIGNMENTS   14 14 14 14 14 14 14 14 14 14 15 15 15 15 15 15 15 15 15 15
CENTRE ASSIGNMENTS   15 15 15 15 15 16 16 16 16 16 16 16 16 16 16 16 16 16 16 16
CENTRE ASSIGNMENTS   17 17 17 17 17 17 17 17 17 17 17 17 17 17 17 18 18 18 18 18
CENTRE ASSIGNMENTS   18 18 18 18 18 18 18 18 18 18 19 19 19 20 20 20 21 21 21 22
CENTRE ASSIGNMENTS   22 22 23 23 23 24 24 24 25 25 25 26 26 26 27 27 27 28 28 28
CENTRE ASSIGNMENTS   29 29 29 30 30 30 31 31 31 32 32 32 33 33 33 34 34 34 35 35
CENTRE ASSIGNMENTS   35 36 36 36 37 37 37 38 38 38 39 39 39
TYPE ASSIGNMENTS      1  1  1  1  1  1  2  2  2  3  3  3  4  4  4  1  1  1  1  1
TYPE ASSIGNMENTS      1  2  2  2  3  3  3  4  4  4  1  1  1  1  1  1  2  2  2  3
TYPE ASSIGNMENTS      3  3  4  4  4  1  1  1  1  1  1  2  2  2  3  3  3  4  4  4
TYPE ASSIGNMENTS      1  1  1  1  1  1  2  2  2  3  3  3  4  4  4  1  1  1  1  1
TYPE ASSIGNMENTS      1  2  2  2  3  3  3  4  4  4  1  1  1  1  1  1  2  2  2  3
TYPE ASSIGNMENTS      3  3  4  4  4  1  1  1  1  1  1  2  2  2  3  3  3  4  4  4
TYPE ASSIGNMENTS      1  1  1  1  1  1  2  2  2  3  3  3  4  4  4  1  1  1  1  1
TYPE ASSIGNMENTS      1  2  2  2  3  3  3  4  4  4  1  1  1  1  1  1  2  2  2  3
TYPE ASSIGNMENTS      3  3  4  4  4  1  1  1  1  1  1  2  2  2  3  3  3  4  4  4
TYPE ASSIGNMENTS      1  1  1  1  1  1  2  2  2  3  3  3  4  4  4  1  1  1  1  1
TYPE ASSIGNMENTS      1  2  2  2  3  3  3  4  4  4  1  1  1  1  1  1  2  2  2  3
TYPE ASSIGNMENTS      3  3  4  4  4  1  1  1  1  1  1  2  2  2  3  3  3  4  4  4
TYPE ASSIGNMENTS      1  1  1  1  1  1  2  2  2  3  3  3  4  4  4  1  1  1  1  1
TYPE ASSIGNMENTS      1  2  2  2  3  3  3  4  4  4  1  1  1  1  1  1  1  1  1  1
TYPE ASSIGNMENTS      1  1  1  1  1  1  1  1  1  1  1  1  1  1  1  1  1  1  1  1
TYPE ASSIGNMENTS      1  1  1  1  1  1  1  1  1  1  1  1  1  1  1  1  1  1  1  1
TYPE ASSIGNMENTS      1  1  1  1  1  1  1  1  1  1  1  1  1
EXPONENTS  0.1307093D+03 0.2380887D+02 0.6443608D+01 0.5033151D+01 0.1169596D+01
EXPONENTS  0.3803890D+00 0.5033151D+01 0.1169596D+01 0.3803890D+00 0.5033151D+01
EXPONENTS  0.1169596D+01 0.3803890D+00 0.5033151D+01 0.1169596D+01 0.3803890D+00
EXPONENTS  0.1307093D+03 0.2380887D+02 0.6443608D+01 0.5033151D+01 0.1169596D+01
EXPONENTS  0.3803890D+00 0.5033151D+01 0.1169596D+01 0.3803890D+00 0.5033151D+01
EXPONENTS  0.1169596D+01 0.3803890D+00 0.5033151D+01 0.1169596D+01 0.3803890D+00
EXPONENTS  0.1307093D+03 0.2380887D+02 0.6443608D+01 0.5033151D+01 0.1169596D+01
EXPONENTS  0.3803890D+00 0.5033151D+01 0.1169596D+01 0.3803890D+00 0.5033151D+01
EXPONENTS  0.1169596D+01 0.3803890D+00 0.5033151D+01 0.1169596D+01 0.3803890D+00
EXPONENTS  0.9910617D+02 0.1805231D+02 0.4885660D+01 0.3780456D+01 0.8784966D+00
EXPONENTS  0.2857144D+00 0.3780456D+01 0.8784966D+00 0.2857144D+00 0.3780456D+01
EXPONENTS  0.8784966D+00 0.2857144D+00 0.3780456D+01 0.8784966D+00 0.2857144D+00
EXPONENTS  0.9910617D+02 0.1805231D+02 0.4885660D+01 0.3780456D+01 0.8784966D+00
EXPONENTS  0.2857144D+00 0.3780456D+01 0.8784966D+00 0.2857144D+00 0.3780456D+01
EXPONENTS  0.8784966D+00 0.2857144D+00 0.3780456D+01 0.8784966D+00 0.2857144D+00
EXPONENTS  0.9910617D+02 0.1805231D+02 0.4885660D+01 0.3780456D+01 0.8784966D+00
EXPONENTS  0.2857144D+00 0.3780456D+01 0.8784966D+00 0.2857144D+00 0.3780456D+01
EXPONENTS  0.8784966D+00 0.2857144D+00 0.3780456D+01 0.8784966D+00 0.2857144D+00
EXPONENTS  0.7161684D+02 0.1304510D+02 0.3530512D+01 0.2941249D+01 0.6834831D+00
EXPONENTS  0.2222899D+00 0.2941249D+01 0.6834831D+00 0.2222899D+00 0.2941249D+01
EXPONENTS  0.6834831D+00 0.2222899D+00 0.2941249D+01 0.6834831D+00 0.2222899D+00
EXPONENTS  0.7161684D+02 0.1304510D+02 0.3530512D+01 0.2941249D+01 0.6834831D+00
EXPONENTS  0.2222899D+00 0.2941249D+01 0.6834831D+00 0.2222899D+00 0.2941249D+01
EXPONENTS  0.6834831D+00 0.2222899D+00 0.2941249D+01 0.6834831D+00 0.2222899D+00
EXPONENTS  0.7161684D+02 0.1304510D+02 0.3530512D+01 0.2941249D+01 0.6834831D+00
EXPONENTS  0.2222899D+00 0.2941249D+01 0.6834831D+00 0.2222899D+00 0.2941249D+01
EXPONENTS  0.6834831D+00 0.2222899D+00 0.2941249D+01 0.6834831D+00 0.2222899D+00
EXPONENTS  0.7161684D+02 0.1304510D+02 0.3530512D+01 0.2941249D+01 0.6834831D+00
EXPONENTS  0.2222899D+00 0.2941249D+01 0.6834831D+00 0.2222899D+00 0.2941249D+01
EXPONENTS  0.6834831D+00 0.2222899D+00 0.2941249D+01 0.6834831D+00 0.2222899D+00
EXPONENTS  0.7161684D+02 0.1304510D+02 0.3530512D+01 0.2941249D+01 0.6834831D+00
EXPONENTS  0.2222899D+00 0.2941249D+01 0.6834831D+00 0.2222899D+00 0.2941249D+01
EXPONENTS  0.6834831D+00 0.2222899D+00 0.2941249D+01 0.6834831D+00 0.2222899D+00
EXPONENTS  0.7161684D+02 0.1304510D+02 0.3530512D+01 0.2941249D+01 0.6834831D+00
EXPONENTS  0.2222899D+00 0.2941249D+01 0.6834831D+00 0.2222899D+00 0.2941249D+01
EXPONENTS  0.6834831D+00 0.2222899D+00 0.2941249D+01 0.6834831D+00 0.2222899D+00
EXPONENTS  0.7161684D+02 0.1304510D+02 0.3530512D+01 0.2941249D+01 0.6834831D+00
EXPONENTS  0.2222899D+00 0.2941249D+01 0.6834831D+00 0.2222899D+00 0.2941249D+01
EXPONENTS  0.6834831D+00 0.2222899D+00 0.2941249D+01 0.6834831D+00 0.2222899D+00
EXPONENTS  0.7161684D+02 0.1304510D+02 0.3530512D+01 0.2941249D+01 0.6834831D+00
EXPONENTS  0.2222899D+00 0.2941249D+01 0.6834831D+00 0.2222899D+00 0.2941249D+01
EXPONENTS  0.6834831D+00 0.2222899D+00 0.2941249D+01 0.6834831D+00 0.2222899D+00
EXPONENTS  0.7161684D+02 0.1304510D+02 0.3530512D+01 0.2941249D+01 0.6834831D+00
EXPONENTS  0.2222899D+00 0.2941249D+01 0.6834831D+00 0.2222899D+00 0.2941249D+01
EXPONENTS  0.6834831D+00 0.2222899D+00 0.2941249D+01 0.6834831D+00 0.2222899D+00
EXPONENTS  0.7161684D+02 0.1304510D+02 0.3530512D+01 0.2941249D+01 0.6834831D+00
EXPONENTS  0.2222899D+00 0.2941249D+01 0.6834831D+00 0.2222899D+00 0.2941249D+01
EXPONENTS  0.6834831D+00 0.2222899D+00 0.2941249D+01 0.6834831D+00 0.2222899D+00
EXPONENTS  0.7161684D+02 0.1304510D+02 0.3530512D+01 0.2941249D+01 0.6834831D+00
EXPONENTS  0.2222899D+00 0.2941249D+01 0.6834831D+00 0.2222899D+00 0.2941249D+01
EXPONENTS  0.6834831D+00 0.2222899D+00 0.2941249D+01 0.6834831D+00 0.2222899D+00
EXPONENTS  0.7161684D+02 0.1304510D+02 0.3530512D+01 0.2941249D+01 0.6834831D+00
EXPONENTS  0.2222899D+00 0.2941249D+01 0.6834831D+00 0.2222899D+00 0.2941249D+01
EXPONENTS  0.6834831D+00 0.2222899D+00 0.2941249D+01 0.6834831D+00 0.2222899D+00
EXPONENTS  0.3425251D+01 0.6239137D+00 0.1688554D+00 0.3425251D+01 0.6239137D+00
EXPONENTS  0.1688554D+00 0.3425251D+01 0.6239137D+00 0.1688554D+00 0.3425251D+01
EXPONENTS  0.6239137D+00 0.1688554D+00 0.3425251D+01 0.6239137D+00 0.1688554D+00
EXPONENTS  0.3425251D+01 0.6239137D+00 0.1688554D+00 0.3425251D+01 0.6239137D+00
EXPONENTS  0.1688554D+00 0.3425251D+01 0.6239137D+00 0.1688554D+00 0.3425251D+01
EXPONENTS  0.6239137D+00 0.1688554D+00 0.3425251D+01 0.6239137D+00 0.1688554D+00
EXPONENTS  0.3425251D+01 0.6239137D+00 0.1688554D+00 0.3425251D+01 0.6239137D+00
EXPONENTS  0.1688554D+00 0.3425251D+01 0.6239137D+00 0.1688554D+00 0.3425251D+01
EXPONENTS  0.6239137D+00 0.1688554D+00 0.3425251D+01 0.6239137D+00 0.1688554D+00
EXPONENTS  0.3425251D+01 0.6239137D+00 0.1688554D+00 0.3425251D+01 0.6239137D+00
EXPONENTS  0.1688554D+00 0.3425251D+01 0.6239137D+00 0.1688554D+00 0.3425251D+01
EXPONENTS  0.6239137D+00 0.1688554D+00 0.3425251D+01 0.6239137D+00 0.1688554D+00
EXPONENTS  0.3425251D+01 0.6239137D+00 0.1688554D+00
MO    1     MO 0.0        OCC NO =    2.0000000  ORB. ENERGY =  -18.937917
 -0.28253565D-05 -0.27325618D-05 -0.85162014D-06  0.82874007D-07 -0.11085068D-06
 -0.83660662D-07  0.24444287D-06  0.15371224D-06  0.24350601D-07  0.99599605D-08
  0.62630904D-08  0.99217875D-09 -0.44528428D-06 -0.28000670D-06 -0.44357766D-07
  0.42244445D+01  0.40856988D+01  0.12733339D+01 -0.68519684D-02  0.91650612D-02
  0.69170084D-02 -0.38886034D-02 -0.24452582D-02 -0.38736998D-03 -0.27136020D-02
 -0.17063858D-02 -0.27032018D-03  0.51563950D-02  0.32424796D-02  0.51366324D-03
  0.39044388D-02  0.37762032D-02  0.11768776D-02 -0.52370703D-04  0.70050046D-04
  0.52867815D-04  0.90226909D-03  0.56737102D-03  0.89881101D-04 -0.67540797D-03
 -0.42471466D-03 -0.67281938D-04 -0.10006424D-03 -0.62923079D-04 -0.99680728D-05
  0.49443026D-07  0.47819142D-07  0.14903138D-07  0.17184005D-07 -0.22984994D-07
 -0.17347118D-07  0.21201970D-06  0.13332368D-06  0.21120711D-07 -0.10455020D-06
 -0.65743970D-07 -0.10414949D-07 -0.75622973D-07 -0.47553755D-07 -0.75333137D-08
 -0.42276078D-05 -0.40887582D-05 -0.12742873D-05 -0.14164291D-05  0.18945883D-05
  0.14298741D-05 -0.13796140D-04 -0.86753832D-05 -0.13743264D-05 -0.78872536D-05
 -0.49597167D-05 -0.78570246D-06 -0.23978472D-05 -0.15078307D-05 -0.23886571D-06
  0.56070234D-05  0.54228689D-05  0.16900714D-05 -0.23861861D-05  0.31917167D-05
  0.24088362D-05 -0.26041180D-04 -0.16375393D-04 -0.25941374D-05  0.64144167D-04
  0.40335573D-04  0.63898325D-05 -0.75266705D-05 -0.47329724D-05 -0.74978234D-06
 -0.92501753D-08 -0.89463669D-08 -0.27881918D-08 -0.43853279D-08  0.58657303D-08
  0.44269542D-08 -0.25130637D-07 -0.15802819D-07 -0.25034320D-08 -0.28479987D-07
 -0.17908980D-07 -0.28370834D-08  0.10898004D-08  0.68529573D-09  0.10856236D-09
  0.38720025D-06  0.37448322D-06  0.11671006D-06  0.19654637D-06 -0.26289664D-06
 -0.19841202D-06  0.52616992D-06  0.33086977D-06  0.52415330D-07  0.68112112D-06
  0.42830724D-06  0.67851063D-07 -0.12083320D-06 -0.75983160D-07 -0.12037009D-07
  0.99636096D-09  0.96363695D-09  0.30032355D-09 -0.27178916D-09  0.36353996D-09
  0.27436903D-09  0.33121045D-08  0.20827402D-08  0.32994104D-09 -0.34833321D-08
 -0.21904127D-08 -0.34699817D-09  0.13235154D-08  0.83226198D-09  0.13184428D-09
  0.93151827D-08  0.90092392D-08  0.28077863D-08  0.17708578D-08 -0.23686654D-08
 -0.17876671D-08  0.39272340D-07  0.24695501D-07  0.39121823D-08 -0.21993147D-07
 -0.13829881D-07 -0.21908855D-08 -0.17803252D-07 -0.11195162D-07 -0.17735018D-08
 -0.64796180D-06 -0.62668045D-06 -0.19530892D-06 -0.20025166D-06  0.26785277D-06
  0.20215248D-06 -0.83037918D-06 -0.52216471D-06 -0.82719663D-07  0.43452501D-07
  0.27324099D-07  0.43285963D-08  0.37229511D-07  0.23410915D-07  0.37086823D-08
  0.62710125D-05  0.60650502D-05  0.18902112D-05  0.43782481D-05 -0.58562605D-05
 -0.44198072D-05  0.80305057D-05  0.50497975D-05  0.79997276D-06  0.11878239D-04
  0.74693554D-05  0.11832714D-05  0.61193939D-05  0.38480391D-05  0.60959404D-06
 -0.76485463D-04 -0.73973410D-04 -0.23054281D-04 -0.45128365D-04  0.60362834D-04
  0.45556731D-04  0.11880012D-03  0.74704702D-04  0.11834480D-04 -0.13216980D-03
 -0.83111915D-04 -0.13166324D-04  0.52604286D-04  0.33078987D-04  0.52402673D-05
  0.89595227D-08  0.86652603D-08  0.27005831D-08  0.72728878D-08 -0.97280750D-08
 -0.73419233D-08  0.30561343D-07  0.19217793D-07  0.30444212D-08  0.11404319D-07
  0.71713419D-08  0.11360610D-08  0.20379005D-07  0.12814865D-07  0.20300899D-08
 -0.10952713D-05 -0.10592987D-05 -0.33013715D-06 -0.35289050D-06  0.47201955D-06
  0.35624019D-06 -0.23713873D-05 -0.14911920D-05 -0.23622986D-06 -0.41757992D-05
 -0.26258546D-05 -0.41597949D-06  0.31563497D-06  0.19847974D-06  0.31442525D-07
 -0.21595538D-04 -0.20886264D-04 -0.65093363D-05 -0.41324656D-05  0.55275065D-05
  0.41716916D-05  0.10179446D-04  0.64011091D-05  0.10140432D-05 -0.31155647D-04
 -0.19591507D-04 -0.31036239D-05  0.19782276D-04  0.12439626D-04  0.19706458D-05
 -0.68838582D-04 -0.66577680D-04 -0.20749355D-04 -0.51123438D-04  0.68381729D-04
  0.51608711D-04  0.23825321D-03  0.14982001D-03  0.23734007D-04 -0.15999518D-03
 -0.10060926D-03 -0.15938198D-04 -0.11699829D-03 -0.73571667D-04 -0.11654988D-04
  0.15951316D-02  0.15427418D-02  0.48080523D-03  0.76557693D-03 -0.10240210D-02
 -0.77284392D-03 -0.38168912D-02 -0.24001636D-02 -0.38022624D-03  0.11418011D-02
  0.71799516D-03  0.11374250D-03  0.18254877D-02  0.11479156D-02  0.18184912D-03
  0.16201308D-08  0.15669199D-08  0.48834051D-09  0.63017724D-06  0.60948000D-06
  0.18994829D-06 -0.45525550D-09 -0.44030330D-09 -0.13722331D-09  0.24376459D-09
  0.23575850D-09  0.73475628D-10 -0.70525022D-08 -0.68208731D-08 -0.21257682D-08
 -0.41112439D-08 -0.39762161D-08 -0.12392129D-08 -0.11723859D-07 -0.11338806D-07
 -0.35338106D-08  0.21596344D-05  0.20887044D-05  0.65095793D-06  0.16524978D-05
  0.15982239D-05  0.49809659D-06 -0.41460636D-05 -0.40098922D-05 -0.12497083D-05
 -0.17214757D-03 -0.16649363D-03 -0.51888794D-04 -0.15467490D-08 -0.14959483D-08
 -0.46622174D-09  0.29141576D-06  0.28184464D-06  0.87838663D-07  0.41182369D-06
  0.39829794D-06  0.12413207D-06  0.29766602D-06  0.28788962D-06  0.89722618D-07
  0.51366715D-05  0.49679651D-05  0.15482977D-05  0.84168709D-06  0.81404311D-06
  0.25370168D-06 -0.42574905D-04 -0.41176595D-04 -0.12832946D-04 -0.11448579D-05
 -0.11072567D-05 -0.34508356D-06 -0.23050611D-04 -0.22293547D-04 -0.69479248D-05
 -0.17529233D-02 -0.16953511D-02 -0.52836688D-03
MO    2     MO 0.0        OCC NO =    2.0000000  ORB. ENERGY =  -18.873663
 -0.46969682D-07 -0.45427032D-07 -0.14157622D-07  0.53158364D-09 -0.71103606D-09
 -0.53662952D-09  0.33599490D-09  0.21128261D-09  0.33470715D-10  0.26269029D-08
  0.16518670D-08  0.26168349D-09 -0.74562047D-08 -0.46886616D-08 -0.74276277D-09
 -0.42470469D-02 -0.41075588D-02 -0.12801467D-02 -0.61604157D-04  0.82400537D-04
  0.62188914D-04 -0.19261878D-03 -0.12112386D-03 -0.19188054D-04 -0.64516099D-03
 -0.40569454D-03 -0.64268832D-04  0.66396945D-03  0.41752181D-03  0.66142469D-04
  0.42246676D+01  0.40859146D+01  0.12734011D+01 -0.68955667D-02  0.92233776D-02
  0.69610206D-02  0.44444960D-02  0.27948184D-02  0.44274619D-03  0.48907219D-02
  0.30754171D-02  0.48719775D-03 -0.71481655D-02 -0.44949583D-02 -0.71207691D-03
  0.15226792D-08  0.14726690D-08  0.45896661D-09  0.53816239D-09 -0.71983567D-09
 -0.54327072D-09  0.58083124D-08  0.36524227D-08  0.57860512D-09 -0.30071826D-08
 -0.18909971D-08 -0.29956571D-09 -0.15570419D-08 -0.97910975D-09 -0.15510743D-09
 -0.82707587D-07 -0.79991177D-07 -0.24929756D-07 -0.25658783D-07  0.34320696D-07
  0.25902341D-07 -0.29632534D-06 -0.18633733D-06 -0.29518963D-07 -0.13754506D-06
 -0.86492024D-07 -0.13701790D-07 -0.43615016D-07 -0.27426293D-07 -0.43447855D-08
 -0.45586525D-04 -0.44089302D-04 -0.13740710D-04 -0.19739272D-04  0.26402871D-04
  0.19926640D-04 -0.93473675D-04 -0.58778755D-04 -0.93115423D-05 -0.89775416D-04
 -0.56453191D-04 -0.89431338D-05  0.16783810D-03  0.10554110D-03  0.16719483D-04
 -0.18080499D-09 -0.17486672D-09 -0.54498317D-10 -0.82906907D-10  0.11089469D-09
  0.83693874D-10 -0.54047620D-09 -0.33986594D-09 -0.53840475D-10 -0.74232143D-09
 -0.46679164D-09 -0.73947638D-10 -0.14036911D-10 -0.88267866D-11 -0.13983113D-11
  0.89980599D-08  0.87025318D-08  0.27121990D-08  0.45535155D-08 -0.60906948D-08
 -0.45967383D-08  0.12220626D-07  0.76846573D-08  0.12173788D-08  0.15148143D-07
  0.95255586D-08  0.15090085D-08 -0.31555174D-08 -0.19842740D-08 -0.31434234D-09
  0.15426705D-10  0.14920037D-10  0.46499239D-11 -0.12518558D-10  0.16744583D-10
  0.12637387D-10  0.56769593D-10  0.35698243D-10  0.56552015D-11 -0.79887458D-10
 -0.50235377D-10 -0.79581278D-11  0.47667431D-10  0.29974560D-10  0.47484739D-11
  0.23700147D-09  0.22921750D-09  0.71437083D-10  0.48829092D-10 -0.65312855D-10
 -0.49292586D-10  0.91048152D-09  0.57253521D-09  0.90699197D-10 -0.54233086D-09
 -0.34103220D-09 -0.54025230D-10 -0.43019432D-09 -0.27051773D-09 -0.42854554D-10
 -0.12406664D-07 -0.11999185D-07 -0.37396218D-08 -0.45378567D-08  0.60697500D-08
  0.45809309D-08 -0.14926494D-07 -0.93861801D-08 -0.14869286D-08  0.69226901D-08
  0.43531733D-08  0.68961579D-09  0.59332945D-08  0.37310148D-08  0.59105543D-09
  0.87202941D-06  0.84338888D-06  0.26284748D-06  0.54694729D-06 -0.73158619D-06
 -0.55213901D-06  0.15852135D-05  0.99682480D-06  0.15791380D-06  0.11834052D-05
  0.74415692D-06  0.11788696D-06  0.23578929D-05  0.14827064D-05  0.23488560D-06
  0.73202733D-05  0.70798496D-05  0.22064799D-05  0.22350700D-05 -0.29895868D-05
 -0.22562857D-05  0.11653474D-04  0.73280169D-05  0.11608810D-05  0.16780856D-04
  0.10552253D-04  0.16716541D-05 -0.73593726D-06 -0.46277709D-06 -0.73311667D-07
  0.21270399D-09  0.20571803D-09  0.64113326D-10  0.17964511D-09 -0.24028984D-09
 -0.18135033D-09  0.75030879D-09  0.47181430D-09  0.74743312D-10  0.28867406D-09
  0.18152600D-09  0.28756767D-10  0.50714637D-09  0.31890725D-09  0.50520266D-10
 -0.18015868D-07 -0.17424163D-07 -0.54303506D-08 -0.18787330D-07  0.25129572D-07
  0.18965663D-07 -0.45233693D-07 -0.28444160D-07 -0.45060328D-08 -0.66302310D-07
 -0.41692672D-07 -0.66048197D-08 -0.65380474D-07 -0.41112997D-07 -0.65129894D-08
 -0.14213971D-04 -0.13747134D-04 -0.42843812D-05 -0.27759455D-05  0.37130514D-05
  0.28022953D-05  0.57013780D-05  0.35851795D-05  0.56795266D-06 -0.33021213D-04
 -0.20764625D-04 -0.32894654D-05 -0.13261250D-04 -0.83390301D-05 -0.13210425D-05
 -0.56621227D-04 -0.54761586D-04 -0.17066794D-04 -0.22316485D-04  0.29850101D-04
  0.22528316D-04 -0.32334882D-03 -0.20333041D-03 -0.32210954D-04 -0.98548085D-04
 -0.61969680D-04 -0.98170385D-05  0.29521195D-03  0.18563720D-03  0.29408051D-04
  0.18454812D-02  0.17848691D-02  0.55626574D-03  0.12613244D-02 -0.16871233D-02
 -0.12732971D-02  0.28590408D-02  0.17978416D-02  0.28480831D-03  0.32068220D-02
  0.20165357D-02  0.31945314D-03 -0.46489430D-02 -0.29233801D-02 -0.46311253D-03
  0.50755513D-10  0.49088523D-10  0.15298748D-10  0.14529771D-07  0.14052562D-07
  0.43795697D-08 -0.11067707D-10 -0.10704205D-10 -0.33360331D-11  0.62523620D-11
  0.60470123D-11  0.18845896D-11 -0.16531840D-09 -0.15988876D-09 -0.49830343D-10
 -0.89886130D-10 -0.86933951D-10 -0.27093515D-10 -0.27093254D-09 -0.26203416D-09
 -0.81664602D-10 -0.34671044D-06 -0.33532325D-06 -0.10450561D-06  0.11091909D-06
  0.10727611D-06  0.33433279D-07  0.72504977D-06  0.70123657D-06  0.21854481D-06
 -0.25662102D-05 -0.24819268D-05 -0.77350817D-06 -0.48180049D-10 -0.46597646D-10
 -0.14522451D-10 -0.15635015D-08 -0.15121506D-08 -0.47127128D-09 -0.44505583D-07
 -0.43043863D-07 -0.13414892D-07  0.12728847D-04  0.12310787D-04  0.38367345D-05
  0.21343434D-05  0.20642440D-05  0.64333469D-06  0.22671442D-07  0.21926831D-07
  0.68336355D-08  0.83585313D-05  0.80840075D-05  0.25194321D-05 -0.49984704D-05
 -0.48343029D-05 -0.15066411D-05 -0.96567792D-04 -0.93396164D-04 -0.29107505D-04
 -0.37632593D-04 -0.36396605D-04 -0.11343232D-04
MO    3     MO 0.0        OCC NO =    2.0000000  ORB. ENERGY =  -18.849166
  0.42246720D+01  0.40859188D+01  0.12734024D+01 -0.68949761D-02  0.92225876D-02
  0.69604244D-02 -0.88985982D-03 -0.55956773D-03 -0.88644930D-04 -0.22028809D-02
 -0.13852306D-02 -0.21944380D-03  0.94277513D-02  0.59284230D-02  0.93916181D-03
  0.31991537D-05  0.30940821D-05  0.96429026D-06  0.50158578D-07 -0.67091150D-07
 -0.50634692D-07 -0.33432096D-06 -0.21022999D-06 -0.33303962D-07 -0.50679864D-06
 -0.31868858D-06 -0.50485626D-07  0.21887611D-07  0.13763517D-07  0.21803723D-08
  0.51987437D-07  0.50279986D-07  0.15670075D-07  0.24590697D-08 -0.32892044D-08
 -0.24824116D-08  0.23041421D-07  0.14489064D-07  0.22953111D-08  0.47571660D-08
  0.29914336D-08  0.47389335D-09  0.30608669D-07  0.19247553D-07  0.30491357D-08
  0.53376214D-05  0.51623150D-05  0.16088681D-05 -0.17425827D-05  0.23308451D-05
  0.17591235D-05  0.48075764D-04  0.30231331D-04  0.47891507D-05 -0.65694584D-04
 -0.41310518D-04 -0.65442800D-05  0.77804523D-05  0.48925572D-05  0.77506326D-06
 -0.75511998D-04 -0.73031917D-04 -0.22760859D-04 -0.40382152D-04  0.54014390D-04
  0.40765466D-04 -0.16228622D-03 -0.10204993D-03 -0.16166424D-04  0.31723692D-03
  0.19948709D-03  0.31602107D-04 -0.59573739D-03 -0.37461566D-03 -0.59345414D-04
  0.41392918D-08  0.40033429D-08  0.12476671D-08  0.50155537D-08 -0.67087082D-08
 -0.50631622D-08 -0.11947241D-07 -0.75127460D-08 -0.11901452D-08  0.41487898D-07
  0.26088703D-07  0.41328889D-08  0.88994731D-08  0.55962275D-08  0.88653646D-09
 -0.48084729D-04 -0.46505457D-04 -0.14493720D-04 -0.19019900D-04  0.25440652D-04
  0.19200440D-04  0.62306892D-04  0.39180246D-04  0.62068092D-05  0.10207107D-03
  0.64185030D-04  0.10167987D-04 -0.13775156D-03 -0.86621878D-04 -0.13722361D-04
 -0.62359597D-04 -0.60311488D-04 -0.18796456D-04 -0.25978267D-04  0.34748031D-04
  0.26224857D-04  0.15892413D-03  0.99935761D-04  0.15831504D-04  0.11764200D-04
  0.73976446D-05  0.11719112D-05 -0.39673914D-03 -0.24948022D-03 -0.39521858D-04
  0.37405651D-05  0.36177117D-05  0.11274827D-05  0.23802712D-05 -0.31838050D-05
 -0.24028651D-05 -0.22392899D-05 -0.14081256D-05 -0.22307075D-06 -0.31048779D-05
 -0.19524305D-05 -0.30929780D-06  0.96605993D-05  0.60748441D-05  0.96235736D-06
 -0.64219331D-06 -0.62110141D-06 -0.19357018D-06 -0.50081194D-06  0.66987643D-06
  0.50556573D-06 -0.13985791D-05 -0.87946407D-06 -0.13932188D-06  0.24539355D-05
  0.15431005D-05  0.24445305D-06  0.11201528D-05  0.70438216D-06  0.11158597D-06
  0.18452744D-02  0.17846690D-02  0.55620338D-03  0.12614456D-02 -0.16872854D-02
 -0.12734195D-02 -0.54205344D-03 -0.34085775D-03 -0.53997594D-04 -0.14597772D-02
 -0.91794708D-03 -0.14541824D-03  0.61452195D-02  0.38642789D-02  0.61216670D-03
  0.62707846D-06  0.60648299D-06  0.18901426D-06 -0.55792682D-08  0.74627220D-08
  0.56322276D-08  0.27328113D-05  0.17184651D-05  0.27223374D-06 -0.31773275D-05
 -0.19979888D-05 -0.31651499D-06  0.21840741D-05  0.13734044D-05  0.21757034D-06
  0.10429229D-05  0.10086696D-05  0.31435826D-06  0.95752856D-06 -0.12807718D-05
 -0.96661759D-06  0.30162862D-05  0.18967217D-05  0.30047258D-06  0.40133146D-05
  0.25236799D-05  0.39979330D-06 -0.94867838D-06 -0.59655442D-06 -0.94504243D-07
  0.50531526D-06  0.48871892D-06  0.15231234D-06  0.13476653D-05 -0.18026112D-05
 -0.13604576D-05  0.41997290D-05  0.26409023D-05  0.41836329D-06  0.63412048D-05
  0.39875198D-05  0.63169013D-06 -0.33755958D-05 -0.21226652D-05 -0.33626584D-06
 -0.51290255D-04 -0.49605702D-04 -0.15459931D-04 -0.19859506D-04  0.26563693D-04
  0.20048016D-04  0.66220606D-05  0.41641294D-05  0.65966806D-06  0.71462201D-04
  0.44937349D-04  0.71188311D-05 -0.15426922D-03 -0.97008627D-04 -0.15367796D-04
 -0.40327623D-06 -0.39003121D-06 -0.12155569D-06 -0.27773773D-06  0.37149665D-06
  0.28037407D-06  0.10305106D-05  0.64801272D-06  0.10265610D-06 -0.17702448D-06
 -0.11131775D-06 -0.17634601D-07 -0.16699477D-07 -0.10501079D-07 -0.16635474D-08
  0.19931784D-08  0.19277153D-08  0.60078467D-09 -0.31205273D-08  0.41739574D-08
  0.31501479D-08 -0.14867457D-06 -0.93490561D-07 -0.14810476D-07 -0.60360773D-07
 -0.37956474D-07 -0.60129432D-08 -0.78021491D-07 -0.49062007D-07 -0.77722462D-08
  0.59059526D-07  0.57119803D-07  0.17801748D-07  0.17694002D-07 -0.23667157D-07
 -0.17861956D-07 -0.11471207D-06 -0.72134029D-07 -0.11427242D-07 -0.73928218D-07
 -0.46488048D-07 -0.73644878D-08  0.19400079D-08  0.12199291D-08  0.19325726D-09
 -0.10954357D-03 -0.10594577D-03 -0.33018669D-04  0.10361726D-04  0.10021410D-04
  0.31232357D-05  0.80953103D-06  0.78294317D-06  0.24400919D-06  0.42795026D-05
  0.41389486D-05  0.12899295D-05  0.10203911D-06  0.98687786D-07  0.30756672D-07
  0.79390500D-06  0.76783035D-06  0.23929918D-06  0.64697030D-06  0.62572150D-06
  0.19501006D-06  0.12682893D-05  0.12266342D-05  0.38228831D-06  0.85160615D-06
  0.82363639D-06  0.25669149D-06  0.28221102D-05  0.27294221D-05  0.85064165D-06
  0.25756982D-05  0.24911031D-05  0.77636804D-06  0.28040258D-06  0.27119317D-06
  0.84519065D-07 -0.40493590D-06 -0.39163637D-06 -0.12205595D-06 -0.10550445D-03
 -0.10203931D-03 -0.31801195D-04 -0.13572636D-06 -0.13126863D-06 -0.40910698D-07
 -0.67658532D-07 -0.65436387D-07 -0.20393664D-07  0.17128770D-05  0.16566201D-05
  0.51629611D-06 -0.93952890D-07 -0.90867145D-07 -0.28319320D-07  0.26989700D-08
  0.26103263D-08  0.81352470D-09  0.45873901D-08  0.44367240D-08  0.13827331D-08
 -0.24293524D-07 -0.23495639D-07 -0.73225644D-08
MO    4     MO 0.0        OCC NO =    2.0000000  ORB. ENERGY =  -14.137845
 -0.17291854D-03 -0.16723929D-03 -0.52121180D-04 -0.51132120D-04  0.68393342D-04
  0.51617475D-04 -0.66218540D-03 -0.41639995D-03 -0.65964748D-04  0.47471820D-03
  0.29851555D-03  0.47289878D-04  0.27963860D-03  0.17584425D-03  0.27856684D-04
 -0.97161943D-05 -0.93970801D-05 -0.29286594D-05 -0.21411679D-05  0.28639850D-05
  0.21614922D-05  0.13867410D-04  0.87201997D-05  0.13814261D-05  0.21099325D-04
  0.13267822D-04  0.21018459D-05 -0.69187490D-06 -0.43506950D-06 -0.68922319D-07
 -0.22854144D-06 -0.22103533D-06 -0.68887058D-07 -0.18178563D-06  0.24315297D-06
  0.18351117D-06 -0.84899512D-06 -0.53387092D-06 -0.84574123D-07  0.91762408D-08
  0.57702664D-08  0.91410715D-09 -0.15387638D-05 -0.96761596D-06 -0.15328663D-06
  0.19204306D-01  0.18573569D-01  0.57885701D-02 -0.10177544D-03  0.13613287D-03
  0.10274151D-03 -0.33216473D-03 -0.20887410D-03 -0.33089166D-04  0.21515467D-03
  0.13529503D-03  0.21433006D-04  0.38216659D-04  0.24031661D-04  0.38070189D-05
  0.34285547D+01  0.33159488D+01  0.10334364D+01 -0.69448786D-02  0.92893361D-02
  0.70108005D-02  0.31349745D-02  0.19713561D-02  0.31229592D-03  0.18738688D-02
  0.11783390D-02  0.18666870D-03  0.11863417D-03  0.74600350D-04  0.11817949D-04
  0.83842368D-05  0.81088689D-05  0.25271802D-05 -0.13355672D-06  0.17864290D-06
  0.13482446D-06  0.49842623D-06  0.31342379D-06  0.49651594D-07 -0.49097246D-06
 -0.30873666D-06 -0.48909074D-07 -0.24184068D-06 -0.15207591D-06 -0.24091379D-07
  0.14583583D-04  0.14104606D-04  0.43957897D-05  0.39890785D-05 -0.53357147D-05
 -0.40269435D-05  0.50447219D-04  0.31722565D-04  0.50253873D-05 -0.23907054D-04
 -0.15033397D-04 -0.23815427D-05  0.20543724D-04  0.12918445D-04  0.20464987D-05
 -0.22558860D-04 -0.21817947D-04 -0.67997011D-05 -0.49442847D-04  0.66133803D-04
  0.49912167D-04 -0.17286426D-03 -0.10870169D-03 -0.17220173D-04  0.15496037D-03
  0.97443237D-04  0.15436646D-04  0.15830121D-04  0.99544049D-05  0.15769450D-05
  0.20091659D-05  0.19431778D-05  0.60560365D-06  0.16424921D-05 -0.21969659D-05
 -0.16580830D-05  0.27218879D-06  0.17115961D-06  0.27114559D-07  0.47036950D-05
  0.29578096D-05  0.46856674D-06  0.11018667D-05  0.69288337D-06  0.10976437D-06
 -0.12620494D-05 -0.12205992D-05 -0.38040747D-06 -0.44498823D-06  0.59520771D-06