 opt proline pbe0
GAUSSIAN             49 MOL ORBITALS    147 PRIMITIVES       17 NUCLEI
  O    1    (CENTRE  1)  -4.14788204  1.89500332 -0.30586585  CHARGE =  8.0
  O    2    (CENTRE  2)  -3.26259329 -2.38981586 -0.68891996  CHARGE =  8.0
  N    3    (CENTRE  3)   1.52092649 -1.97448256  1.39473044  CHARGE =  7.0
  C    4    (CENTRE  4)  -0.11037215  0.35702099  1.41763721  CHARGE =  6.0
  C    5    (CENTRE  5)   1.44041931  2.49933213  0.12454360  CHARGE =  6.0
  C    6    (CENTRE  6)   3.93837851  1.21278714 -0.69309522  CHARGE =  6.0
  C    7    (CENTRE  7)   3.23997098 -1.60910408 -0.83925956  CHARGE =  6.0
  C    8    (CENTRE  8)  -2.63702617 -0.24399730  0.03067248  CHARGE =  6.0
  H    9    (CENTRE  9)  -0.58178352  0.85648811  3.38703483  CHARGE =  1.0
  H   10    (CENTRE 10)   1.77395902  4.07006849  1.42889954  CHARGE =  1.0
  H   11    (CENTRE 11)   0.41285336  3.24360472 -1.51235767  CHARGE =  1.0
  H   12    (CENTRE 12)   4.64837346  1.94515666 -2.49412669  CHARGE =  1.0
  H   13    (CENTRE 13)   5.39359712  1.49595946  0.75159625  CHARGE =  1.0
  H   14    (CENTRE 14)   2.30062209 -2.02204568 -2.65561423  CHARGE =  1.0
  H   15    (CENTRE 15)   4.89307911 -2.85506773 -0.66512056  CHARGE =  1.0
  H   16    (CENTRE 16)   0.25653001 -3.43597578  0.90602490  CHARGE =  1.0
  H   17    (CENTRE 17)  -5.68813632  1.18545676 -1.19415402  CHARGE =  1.0
CENTRE ASSIGNMENTS    1  1  1  1  1  1  1  1  1  1  1  1  1  1  1  2  2  2  2  2
CENTRE ASSIGNMENTS    2  2  2  2  2  2  2  2  2  2  3  3  3  3  3  3  3  3  3  3
CENTRE ASSIGNMENTS    3  3  3  3  3  4  4  4  4  4  4  4  4  4  4  4  4  4  4  4
CENTRE ASSIGNMENTS    5  5  5  5  5  5  5  5  5  5  5  5  5  5  5  6  6  6  6  6
CENTRE ASSIGNMENTS    6  6  6  6  6  6  6  6  6  6  7  7  7  7  7  7  7  7  7  7
CENTRE ASSIGNMENTS    7  7  7  7  7  8  8  8  8  8  8  8  8  8  8  8  8  8  8  8
CENTRE ASSIGNMENTS    9  9  9 10 10 10 11 11 11 12 12 12 13 13 13 14 14 14 15 15
CENTRE ASSIGNMENTS   15 16 16 16 17 17 17
TYPE ASSIGNMENTS      1  1  1  1  1  1  2  2  2  3  3  3  4  4  4  1  1  1  1  1
TYPE ASSIGNMENTS      1  2  2  2  3  3  3  4  4  4  1  1  1  1  1  1  2  2  2  3
TYPE ASSIGNMENTS      3  3  4  4  4  1  1  1  1  1  1  2  2  2  3  3  3  4  4  4
TYPE ASSIGNMENTS      1  1  1  1  1  1  2  2  2  3  3  3  4  4  4  1  1  1  1  1
TYPE ASSIGNMENTS      1  2  2  2  3  3  3  4  4  4  1  1  1  1  1  1  2  2  2  3
TYPE ASSIGNMENTS      3  3  4  4  4  1  1  1  1  1  1  2  2  2  3  3  3  4  4  4
TYPE ASSIGNMENTS      1  1  1  1  1  1  1  1  1  1  1  1  1  1  1  1  1  1  1  1
TYPE ASSIGNMENTS      1  1  1  1  1  1  1
EXPONENTS  0.1307093D+03 0.2380887D+02 0.6443608D+01 0.5033151D+01 0.1169596D+01
EXPONENTS  0.3803890D+00 0.5033151D+01 0.1169596D+01 0.3803890D+00 0.5033151D+01
EXPONENTS  0.1169596D+01 0.3803890D+00 0.5033151D+01 0.1169596D+01 0.3803890D+00
EXPONENTS  0.1307093D+03 0.2380887D+02 0.6443608D+01 0.5033151D+01 0.1169596D+01
EXPONENTS  0.3803890D+00 0.5033151D+01 0.1169596D+01 0.3803890D+00 0.5033151D+01
EXPONENTS  0.1169596D+01 0.3803890D+00 0.5033151D+01 0.1169596D+01 0.3803890D+00
EXPONENTS  0.9910617D+02 0.1805231D+02 0.4885660D+01 0.3780456D+01 0.8784966D+00
EXPONENTS  0.2857144D+00 0.3780456D+01 0.8784966D+00 0.2857144D+00 0.3780456D+01
EXPONENTS  0.8784966D+00 0.2857144D+00 0.3780456D+01 0.8784966D+00 0.2857144D+00
EXPONENTS  0.7161684D+02 0.1304510D+02 0.3530512D+01 0.2941249D+01 0.6834831D+00
EXPONENTS  0.2222899D+00 0.2941249D+01 0.6834831D+00 0.2222899D+00 0.2941249D+01
EXPONENTS  0.6834831D+00 0.2222899D+00 0.2941249D+01 0.6834831D+00 0.2222899D+00
EXPONENTS  0.7161684D+02 0.1304510D+02 0.3530512D+01 0.2941249D+01 0.6834831D+00
EXPONENTS  0.2222899D+00 0.2941249D+01 0.6834831D+00 0.2222899D+00 0.2941249D+01
EXPONENTS  0.6834831D+00 0.2222899D+00 0.2941249D+01 0.6834831D+00 0.2222899D+00
EXPONENTS  0.7161684D+02 0.1304510D+02 0.3530512D+01 0.2941249D+01 0.6834831D+00
EXPONENTS  0.2222899D+00 0.2941249D+01 0.6834831D+00 0.2222899D+00 0.2941249D+01
EXPONENTS  0.6834831D+00 0.2222899D+00 0.2941249D+01 0.6834831D+00 0.2222899D+00
EXPONENTS  0.7161684D+02 0.1304510D+02 0.3530512D+01 0.2941249D+01 0.6834831D+00
EXPONENTS  0.2222899D+00 0.2941249D+01 0.6834831D+00 0.2222899D+00 0.2941249D+01
EXPONENTS  0.6834831D+00 0.2222899D+00 0.2941249D+01 0.6834831D+00 0.2222899D+00
EXPONENTS  0.7161684D+02 0.1304510D+02 0.3530512D+01 0.2941249D+01 0.6834831D+00
EXPONENTS  0.2222899D+00 0.2941249D+01 0.6834831D+00 0.2222899D+00 0.2941249D+01
EXPONENTS  0.6834831D+00 0.2222899D+00 0.2941249D+01 0.6834831D+00 0.2222899D+00
EXPONENTS  0.3425251D+01 0.6239137D+00 0.1688554D+00 0.3425251D+01 0.6239137D+00
EXPONENTS  0.1688554D+00 0.3425251D+01 0.6239137D+00 0.1688554D+00 0.3425251D+01
EXPONENTS  0.6239137D+00 0.1688554D+00 0.3425251D+01 0.6239137D+00 0.1688554D+00
EXPONENTS  0.3425251D+01 0.6239137D+00 0.1688554D+00 0.3425251D+01 0.6239137D+00
EXPONENTS  0.1688554D+00 0.3425251D+01 0.6239137D+00 0.1688554D+00 0.3425251D+01
EXPONENTS  0.6239137D+00 0.1688554D+00
MO    1     MO 0.0        OCC NO =    2.0000005  ORB. ENERGY =    0.000000
  0.16700779D+00  0.16152266D+00  0.50339559D-01  0.29468761D-03 -0.39416848D-03
 -0.29748483D-03 -0.13860568D-02 -0.87158974D-03 -0.13807446D-03  0.22343167D-03
  0.14049983D-03  0.22257534D-04 -0.72462931D-03 -0.45566636D-03 -0.72185207D-04
  0.27421828D+01  0.26521199D+01  0.82654992D+00 -0.22269962D-04  0.29787873D-04
  0.22481352D-04  0.44278258D-02  0.27843357D-02  0.44108555D-03  0.13296605D-01
  0.83612622D-02  0.13245644D-02  0.47984852D-02  0.30174162D-02  0.47800943D-03
  0.22377649D+01  0.21642688D+01  0.67450804D+00 -0.20943803D-02  0.28014028D-02
  0.21142605D-02 -0.75678313D-02 -0.47588554D-02 -0.75388265D-03  0.16915523D-02
  0.10636935D-02  0.16850692D-03 -0.12695917D-01 -0.79835331D-02 -0.12647258D-02
 -0.35993132D-01 -0.34810990D-01 -0.10849065D-01  0.10555164D-02 -0.14118385D-02
 -0.10655356D-02  0.45590901D-03  0.28668782D-03  0.45416167D-04  0.19526138D-02
  0.12278560D-02  0.19451302D-03  0.52043473D-03  0.32726333D-03  0.51844009D-04
 -0.38969555D-01 -0.37689657D-01 -0.11746220D-01  0.34461204D-04 -0.46094644D-04
 -0.34788315D-04 -0.10613635D-03 -0.66741385D-04 -0.10572957D-04 -0.15374488D-03
 -0.96678907D-04 -0.15315563D-04 -0.63970866D-05 -0.40226597D-05 -0.63725689D-06
 -0.19374726D-01 -0.18738392D-01 -0.58399382D-02  0.43343147D-04 -0.57974960D-04
 -0.43754567D-04  0.20250074D-03  0.12733790D-03  0.20172463D-04 -0.13496306D-03
 -0.84868393D-04 -0.13444579D-04 -0.13071806D-03 -0.82199022D-04 -0.13021706D-04
  0.33852482D-01  0.32740647D-01  0.10203830D-01  0.41049771D-03 -0.54907385D-03
 -0.41439423D-03  0.67799981D-03  0.42634448D-03  0.67540128D-04  0.29261881D-03
  0.18400656D-03  0.29149731D-04 -0.21655085D-02 -0.13617298D-02 -0.21572089D-03
  0.10722388D+01  0.10370227D+01  0.32319467D+00 -0.17636352D-02  0.23590046D-02
  0.17803760D-02 -0.11302125D-03 -0.71070796D-04 -0.11258808D-04  0.11601359D-02
  0.72952461D-03  0.11556896D-03  0.18101418D-03  0.11382657D-03  0.18032041D-04
  0.31056491D-03  0.30036486D-03  0.93610606D-04  0.56806280D-04  0.54940561D-04
  0.17122573D-04  0.28476559D-05  0.27541288D-05  0.85834164D-06  0.13909709D-04
  0.13452865D-04  0.41926705D-05  0.24733444D-04  0.23921110D-04  0.74551651D-05
 -0.24066112D-03 -0.23275696D-03 -0.72540177D-04  0.13941388D-03  0.13483504D-03
  0.42022191D-04 -0.14898147D-02 -0.14408839D-02 -0.44906058D-03 -0.49199411D-03
 -0.47583528D-03 -0.14829707D-03
MO    2     MO 0.0        OCC NO =    2.0000005  ORB. ENERGY =    0.000000
  0.14182526D+00  0.13716721D+00  0.42749029D-01  0.15958339D-03 -0.21345567D-03
 -0.16109818D-03 -0.15210592D-02 -0.95648282D-03 -0.15152295D-03  0.61819802D-03
  0.38873951D-03  0.61582869D-04 -0.59199850D-03 -0.37226454D-03 -0.58972958D-04
  0.25084110D+01  0.24260259D+01  0.75608631D+00 -0.31979124D-03  0.42774662D-03
  0.32282676D-03  0.37627911D-02  0.23661440D-02  0.37483697D-03  0.11961933D-01
  0.75219846D-02  0.11916087D-02  0.41223089D-02  0.25922185D-02  0.41065096D-03
 -0.26078339D+01 -0.25221834D+01 -0.78605439D+00  0.24970557D-02 -0.33400137D-02
 -0.25207582D-02  0.79226866D-02  0.49819979D-02  0.78923218D-03 -0.26700913D-02
 -0.16790250D-02 -0.26598578D-03  0.13682876D-01  0.86041597D-02  0.13630435D-02
  0.23676303D-01  0.22898689D-01  0.71365212D-02 -0.28439489D-03  0.38040114D-03
  0.28709441D-03  0.35684725D-02  0.22439512D-02  0.35547958D-03 -0.18481671D-02
 -0.11621771D-02 -0.18410837D-03  0.17370854D-02  0.10923259D-02  0.17304278D-03
  0.19541191D-01  0.18899389D-01  0.58901141D-02 -0.54752984D-04  0.73236539D-04
  0.55272709D-04 -0.18034170D-03 -0.11340370D-03 -0.17965051D-04 -0.38860674D-04
 -0.24436635D-04 -0.38711735D-05 -0.85469770D-05 -0.53745685D-05 -0.85142195D-06
  0.48423010D-02  0.46832628D-02  0.14595684D-02  0.88185147D-05 -0.11795476D-04
 -0.89022216D-05 -0.76249369D-04 -0.47947649D-04 -0.75957132D-05  0.51189468D-04
  0.32189311D-04  0.50993277D-05  0.21583021D-04  0.13571983D-04  0.21500301D-05
 -0.37302340D-01 -0.36077200D-01 -0.11243687D-01 -0.50796258D-03  0.67944098D-03
  0.51278425D-03 -0.93719164D-03 -0.58933125D-03 -0.93359972D-04 -0.42436668D-03
 -0.26685316D-03 -0.42274023D-04  0.24824086D-02  0.15610051D-02  0.24728944D-03
  0.74226776D+00  0.71788906D+00  0.22373466D+00 -0.11189360D-02  0.14966673D-02
  0.11295572D-02  0.15400568D-03  0.96842903D-04  0.15341543D-04  0.21829891D-02
  0.13727221D-02  0.21746224D-03  0.49723485D-03  0.31267461D-03  0.49532912D-04
 -0.18431873D-03 -0.17826505D-03 -0.55557430D-04 -0.14725749D-03 -0.14242104D-03
 -0.44386416D-04  0.11876801D-04  0.11486725D-04  0.35799104D-05  0.42269380D-04
  0.40881104D-04  0.12740855D-04  0.10377814D-05  0.10036970D-05  0.31280852D-06
  0.17925910D-03  0.17337160D-03  0.54032356D-04 -0.15407347D-03 -0.14901315D-03
 -0.46440890D-04  0.11555850D-02  0.11176315D-02  0.34831693D-03 -0.24455815D-03
 -0.23652599D-03 -0.73714821D-04
MO    3     MO 0.0        OCC NO =    2.0000003  ORB. ENERGY =    0.000000
  0.41908465D+01  0.40532043D+01  0.12632067D+01 -0.58773916D-03  0.78614861D-03
  0.59331808D-03 -0.34571528D-02 -0.21739504D-02 -0.34439028D-03 -0.20866705D-01
 -0.13121544D-01 -0.20786730D-02 -0.56545447D-02 -0.35557294D-02 -0.56328728D-03
 -0.51553506D+00 -0.49860307D+00 -0.15539280D+00 -0.76833809D-05  0.10277143D-04
  0.77563129D-05 -0.85744053D-03 -0.53918161D-03 -0.85415426D-04 -0.26306042D-02
 -0.16541945D-02 -0.26205220D-03 -0.93332686D-03 -0.58690098D-03 -0.92974975D-04
 -0.31785136D-01 -0.30741199D-01 -0.95806891D-02  0.44222617D-04 -0.59151322D-04
 -0.44642385D-04  0.67786692D-04  0.42626091D-04  0.67526889D-05  0.19283160D-05
  0.12125769D-05  0.19209255D-06  0.83146197D-04  0.52284560D-04  0.82827528D-05
 -0.32111708D-01 -0.31057046D-01 -0.96791246D-02  0.17788191D-03 -0.23793143D-03
 -0.17957040D-03  0.37847637D-03  0.23799610D-03  0.37702580D-04  0.29941702D-03
  0.18828146D-03  0.29826946D-04  0.30898019D-03  0.19429504D-03  0.30779598D-04
  0.36537044D-01  0.35337038D-01  0.11013011D-01 -0.13183881D-03  0.17634506D-03
  0.13309025D-03  0.27321803D-04  0.17180683D-04  0.27217089D-05 -0.36270311D-04
 -0.22807745D-04 -0.36131300D-05 -0.10871856D-03 -0.68365151D-04 -0.10830188D-04
 -0.20433144D-02 -0.19762047D-02 -0.61589669D-03  0.25469084D-04 -0.34066958D-04
 -0.25710841D-04  0.78932731D-04  0.49635019D-04  0.78630209D-05 -0.57527051D-04
 -0.36174553D-04 -0.57306570D-05 -0.31305006D-04 -0.19685428D-04 -0.31185025D-05
 -0.46075698D-02 -0.44562410D-02 -0.13888157D-02  0.34401051D-05 -0.46014185D-05
 -0.34727592D-05 -0.13592476D-04 -0.85473137D-05 -0.13540381D-05 -0.53526972D-05
 -0.33659197D-05 -0.53321822D-06  0.25613981D-04  0.16106758D-04  0.25515811D-05
  0.30657091D+00  0.29650204D+00  0.92406735D-01 -0.26378904D-03  0.35283916D-03
  0.26629297D-03  0.71028655D-03  0.44664724D-03  0.70756427D-04 -0.46577795D-02
 -0.29289367D-02 -0.46399278D-03 -0.55064206D-03 -0.34625850D-03 -0.54853164D-04
  0.14551645D-04  0.14073717D-04  0.43861630D-05 -0.35934302D-04 -0.34754093D-04
 -0.10831333D-04 -0.15846878D-03 -0.15326410D-03 -0.47765727D-04  0.93258866D-05
  0.90195915D-05  0.28110127D-05  0.49844058D-05  0.48207003D-05  0.15024017D-05
  0.22050224D-06  0.21326017D-06  0.66463878D-07  0.23308842D-05  0.22543297D-05
  0.70257611D-06  0.57764186D-04  0.55867006D-04  0.17411306D-04 -0.14012227D-02
 -0.13552016D-02 -0.42235715D-03
MO    4     MO 0.0        OCC NO =    2.0000002  ORB. ENERGY =    0.000000
 -0.66659534D+00 -0.64470199D+00 -0.20092545D+00  0.12902297D-02 -0.17257865D-02
 -0.13024768D-02 -0.19183134D-02 -0.12062870D-02 -0.19109612D-03  0.56563206D-02
  0.35568462D-02  0.56346419D-03  0.61066679D-04  0.38400367D-04  0.60832632D-05
 -0.19674016D+01 -0.19027852D+01 -0.59301503D+00  0.85126470D-03 -0.11386353D-02
 -0.85934505D-03 -0.26550844D-02 -0.16695883D-02 -0.26449084D-03 -0.80239772D-02
 -0.50456922D-02 -0.79932241D-03 -0.28803761D-02 -0.18112578D-02 -0.28693366D-03
 -0.20269177D+00 -0.19603466D+00 -0.61095441D-01  0.11417134D-03 -0.15271340D-03
 -0.11525508D-03 -0.35189076D-03 -0.22127835D-03 -0.35054209D-04  0.50125598D-03
  0.31520321D-03  0.49933484D-04  0.44942632D-03  0.28261133D-03  0.44770383D-04
 -0.48403352D+00 -0.46813615D+00 -0.14589759D+00  0.21518096D-02 -0.28782192D-02
 -0.21722350D-02  0.38835379D-02  0.24420728D-02  0.38686536D-03  0.12911799D-02
  0.81192858D-03  0.12862313D-03  0.22987073D-02  0.14454889D-02  0.22898972D-03
 -0.78854483D-01 -0.76264623D-01 -0.23768352D-01 -0.37565502D-05  0.50246893D-05
  0.37922080D-05 -0.46955325D-03 -0.29526769D-03 -0.46775362D-04 -0.40533501D-03
 -0.25488553D-03 -0.40378151D-04  0.13710386D-03  0.86214584D-04  0.13657839D-04
 -0.23883667D-01 -0.23099243D-01 -0.71990251D-02  0.38031209D-04 -0.50869814D-04
 -0.38392208D-04 -0.79239357D-04 -0.49827834D-04 -0.78935660D-05 -0.26914762D-04
 -0.16924725D-04 -0.26811607D-05 -0.80991142D-06 -0.50929403D-06 -0.80680732D-07
 -0.20892630D-01 -0.20206442D-01 -0.62974653D-02 -0.21946188D-04  0.29354799D-04
  0.22154505D-04 -0.18099799D-03 -0.11381640D-03 -0.18030429D-04  0.17702972D-04
  0.11132104D-04  0.17635123D-05  0.14628081D-03  0.91985297D-04  0.14572016D-04
  0.22827385D+01  0.22077653D+01  0.68806402D+00 -0.57066267D-02  0.76330742D-02
  0.57607949D-02 -0.20835384D-02 -0.13101849D-02 -0.20755529D-03 -0.34385296D-02
 -0.21622397D-02 -0.34253509D-03 -0.16607460D-02 -0.10443216D-02 -0.16543809D-03
  0.40861498D-03  0.39519462D-03  0.12316490D-03 -0.77938196D-05 -0.75378430D-05
 -0.23492164D-05  0.52336656D-05  0.50617735D-05  0.15775337D-05  0.28421835D-04
  0.27488361D-04  0.85669215D-05  0.24903675D-04  0.24085750D-04  0.75064763D-05
 -0.36631447D-04 -0.35428341D-04 -0.11041466D-04  0.18508411D-04  0.17900529D-04
  0.55788130D-05  0.15753655D-03  0.15236249D-03  0.47484733D-04 -0.14792505D-03
 -0.14306667D-03 -0.44587633D-04
MO    5     MO 0.0        OCC NO =    2.0000001  ORB. ENERGY =    0.000000
 -0.50246983D-01 -0.48596694D-01 -0.15145467D-01  0.92592051D-04 -0.12384935D-03
 -0.93470951D-04 -0.13227399D-03 -0.83177435D-04 -0.13176703D-04  0.26501552D-03
  0.16664887D-03  0.26399981D-04  0.78136591D-04  0.49134385D-04  0.77837121D-05
 -0.71337887D-01 -0.68994899D-01 -0.21502696D-01  0.43502002D-04 -0.58187442D-04
 -0.43914931D-04  0.61078408D-04  0.38407742D-04  0.60844317D-05 -0.27957096D-03
 -0.17580172D-03 -0.27849947D-04 -0.67219456D-04 -0.42269398D-04 -0.66961828D-05
  0.15511038D-01  0.15001601D-01  0.46753437D-02  0.38958233D-03 -0.52109784D-03
 -0.39328031D-03 -0.80630693D-03 -0.50702744D-03 -0.80321664D-04 -0.72664595D-03
 -0.45693447D-03 -0.72386097D-04  0.10481732D-02  0.65911943D-03  0.10441559D-03
  0.34216582D+00  0.33092788D+00  0.10313577D+00 -0.33236339D-03  0.44456289D-03
  0.33551825D-03 -0.98293262D-03 -0.61809441D-03 -0.97916539D-04 -0.11821231D-02
 -0.74335072D-03 -0.11775924D-03  0.97952749D-03  0.61595317D-03  0.97577331D-04
  0.14363459D+01  0.13891712D+01  0.43294398D+00 -0.30675989D-02  0.41031613D-02
  0.30967171D-02 -0.18205441D-02 -0.11448070D-02 -0.18135666D-03  0.97967560D-03
  0.61604631D-03  0.97592085D-04  0.55731986D-03  0.35045769D-03  0.55518386D-04
  0.19491366D+01  0.18851201D+01  0.58750960D+00 -0.43776683D-02  0.58554850D-02
  0.44192219D-02  0.12323459D-02  0.77493218D-03  0.12276228D-03  0.13688114D-03
  0.86074534D-04  0.13635652D-04 -0.21466299D-03 -0.13498585D-03 -0.21384026D-04
  0.10934149D+01  0.10575033D+01  0.32957760D+00 -0.21591825D-02  0.28880810D-02
  0.21796778D-02 -0.48279805D-03 -0.30359637D-03 -0.48094766D-04 -0.20986418D-02
 -0.13196823D-02 -0.20905985D-03  0.57239793D-04  0.35993918D-04  0.57020413D-05
  0.12326503D+00  0.11921657D+00  0.37154599D-01 -0.20724019D-03  0.27720050D-03
  0.20920735D-03 -0.44312361D-03 -0.27864802D-03 -0.44142528D-04 -0.22535053D-03
 -0.14170646D-03 -0.22448684D-04 -0.29429481D-03 -0.18506047D-03 -0.29316688D-04
 -0.26385600D-03 -0.25519004D-03 -0.79531588D-04 -0.11675299D-02 -0.11291841D-02
 -0.35191737D-03 -0.11876982D-02 -0.11486900D-02 -0.35799651D-03 -0.15892276D-02
 -0.15370317D-02 -0.47902566D-03 -0.16284252D-02 -0.15749419D-02 -0.49084061D-03
 -0.95104530D-03 -0.91980961D-03 -0.28666448D-03 -0.88781917D-03 -0.85866005D-03
 -0.26760683D-03 -0.89735649D-04 -0.86788413D-04 -0.27048157D-04 -0.40897597D-05
 -0.39554376D-05 -0.12327371D-05
MO    6     MO 0.0        OCC NO =    2.0000001  ORB. ENERGY =    0.000000
 -0.86693850D-01 -0.83846518D-01 -0.26131297D-01  0.16865218D-03 -0.22558591D-03
 -0.17025305D-03 -0.20458563D-03 -0.12864893D-03 -0.20380153D-04  0.42258119D-03
  0.26573039D-03  0.42096159D-04  0.38378273D-03  0.24133288D-03  0.38231183D-04
 -0.25656902D+00 -0.24814239D+00 -0.77335144D-01  0.14874441D-03 -0.19895766D-03
 -0.15015631D-03  0.64964747D-03  0.40851576D-03  0.64715760D-04 -0.10165890D-02
 -0.63925842D-03 -0.10126927D-03  0.21828960D-03  0.13726636D-03  0.21745297D-04
  0.60394590D-01  0.58411018D-01  0.18204163D-01  0.74727573D-04 -0.99954166D-04
 -0.75436900D-04  0.26193983D-02  0.16471480D-02  0.26093591D-03 -0.18802097D-02
 -0.11823263D-02 -0.18730035D-03 -0.14158433D-02 -0.89032029D-03 -0.14104169D-03
  0.18700845D+01  0.18086643D+01  0.56368166D+00 -0.43031907D-02  0.57558652D-02
  0.43440373D-02 -0.28593176D-03 -0.17980156D-03 -0.28483588D-04 -0.13351760D-02
 -0.83959448D-03 -0.13300587D-03  0.40677603D-03  0.25579168D-03  0.40521700D-04
  0.12852816D+01  0.12430684D+01  0.38741013D+00 -0.29725198D-02  0.39759854D-02
  0.30007355D-02  0.20101471D-02  0.12640345D-02  0.20024430D-03  0.10299532D-02
  0.64766221D-03  0.10260058D-03 -0.13734687D-02 -0.86367398D-03 -0.13682047D-03
 -0.60529115D+00 -0.58541125D+00 -0.18244712D+00  0.16371342D-02 -0.21897992D-02
 -0.16526741D-02  0.12895975D-02  0.81093349D-03  0.12846549D-03 -0.20651811D-02
 -0.12986413D-02 -0.20572659D-03 -0.70152186D-03 -0.44113577D-03 -0.69883318D-04
 -0.12386826D+01 -0.11979999D+01 -0.37336425D+00  0.30902362D-02 -0.41334406D-02
 -0.31195693D-02  0.78756704D-03  0.49524329D-03  0.78454858D-04 -0.24907398D-04
 -0.15662440D-04 -0.24811937D-05 -0.40578634D-03 -0.25516934D-03 -0.40423111D-04
  0.33099128D+00  0.32012035D+00  0.99767532D-01 -0.21970513D-03  0.29387336D-03
  0.22179061D-03 -0.23950534D-02 -0.15060738D-02 -0.23858740D-03 -0.10199947D-02
 -0.64140004D-03 -0.10160854D-03 -0.14240817D-02 -0.89550081D-03 -0.14186237D-03
 -0.15921003D-02 -0.15398101D-02 -0.47989156D-03 -0.10610860D-02 -0.10262361D-02
 -0.31983298D-03 -0.10933468D-02 -0.10574375D-02 -0.32955707D-03  0.50703904D-03
  0.49038608D-03  0.15283192D-03  0.51568967D-03  0.49875260D-03  0.15543940D-03
  0.10496801D-02  0.10152049D-02  0.31639502D-03  0.10325315D-02  0.99861949D-03
  0.31122608D-03 -0.10040968D-03 -0.97111871D-04 -0.30265529D-04 -0.57210472D-04
 -0.55331477D-04 -0.17244405D-04
MO    7     MO 0.0        OCC NO =    2.0000000  ORB. ENERGY =    0.000000
  0.10019145D-01  0.96900811D-02  0.30199750D-02 -0.55988225D-04  0.74888774D-04
  0.56519675D-04  0.52585195D-04  0.33066982D-04  0.52383654D-05 -0.21762820D-03
 -0.13685045D-03 -0.21679410D-04  0.15937349D-04  0.10021833D-04  0.15876267D-05
  0.22805545D+00  0.22056530D+00  0.68740571D-01 -0.14317909D-03  0.19151360D-03
  0.14453817D-03 -0.62558480D-03 -0.39338451D-03 -0.62318716D-04  0.85544331D-03
  0.53792571D-03  0.85216470D-04 -0.20704262D-03 -0.13019395D-03 -0.20624910D-04
  0.47400582D-01  0.45843779D-01  0.14287504D-01 -0.10806129D-02  0.14454070D-02
  0.10908703D-02 -0.30221934D-03 -0.19004363D-03 -0.30106104D-04  0.22235314D-02
  0.13982162D-02  0.22150094D-03 -0.18922745D-02 -0.11899130D-02 -0.18850221D-03
 -0.17498064D+01 -0.16923366D+01 -0.52742739D+00  0.47895667D-02 -0.64064324D-02
 -0.48350301D-02 -0.94250189D-03 -0.59267048D-03 -0.93888961D-04 -0.10668743D-02
 -0.67087922D-03 -0.10627854D-03  0.47896018D-03  0.30118302D-03  0.47712450D-04
  0.12655573D+01  0.12239919D+01  0.38146481D+00 -0.39275530D-02  0.52534194D-02
  0.39648340D-02 -0.16396652D-02 -0.10310655D-02 -0.16333809D-03 -0.20794924D-02
 -0.13076406D-02 -0.20715224D-03  0.10795691D-02  0.67886199D-03  0.10754315D-03
  0.25563240D+00  0.24723653D+00  0.77052827D-01 -0.77135977D-03  0.10317560D-02
  0.77868165D-03  0.84396594D-03  0.53070843D-03  0.84073132D-04 -0.27953128D-02
 -0.17577677D-02 -0.27845994D-03 -0.45929310D-03 -0.28881583D-03 -0.45753280D-04
 -0.15390749D+01 -0.14885262D+01 -0.46390861D+00  0.40537081D-02 -0.54221620D-02
 -0.40921866D-02 -0.20120655D-03 -0.12652408D-03 -0.20043539D-04 -0.63731170D-03
 -0.40075870D-03 -0.63486911D-04 -0.20444100D-03 -0.12855799D-03 -0.20365745D-04
 -0.25906401D+00 -0.25055543D+00 -0.78087184D-01  0.79910160D-04 -0.10688629D-03
 -0.80668681D-04  0.22333786D-02  0.14044084D-02  0.22248189D-03  0.98959118D-03
  0.62228149D-03  0.98579843D-04  0.12540089D-02  0.78855445D-03  0.12492027D-03
  0.15431294D-02  0.14924476D-02  0.46513072D-03 -0.10697057D-02 -0.10345728D-02
 -0.32243116D-03 -0.10272288D-02 -0.99349095D-03 -0.30962774D-03 -0.20709174D-03
 -0.20029012D-03 -0.62421681D-04 -0.19756311D-03 -0.19107444D-03 -0.59549556D-04
  0.12909521D-02  0.12485527D-02  0.38911934D-03  0.13197570D-02  0.12764115D-02
  0.39780170D-03  0.17803549D-03  0.17218817D-03  0.53663532D-04  0.68466644D-04
  0.66217957D-04  0.20637245D-04
MO    8     MO 0.0        OCC NO =    2.0000000  ORB. ENERGY =    0.000000
  0.22162792D-01  0.21434888D-01  0.66803182D-02 -0.27529179D-04  0.36822501D-04
  0.27790491D-04  0.57033743D-04  0.35864348D-04  0.56815153D-05 -0.36136381D-04
 -0.22723526D-04 -0.35997883D-05 -0.12586427D-03 -0.79146833D-04 -0.12538188D-04
 -0.47528485D-01 -0.45967481D-01 -0.14326056D-01  0.16661620D-04 -0.22286263D-04
 -0.16819775D-04  0.16007499D-03  0.10065945D-03  0.15946147D-04 -0.21023994D-03
 -0.13220452D-03 -0.20943417D-04  0.68768262D-04  0.43243328D-04  0.68504697D-05
  0.26796989D-01  0.25916882D-01  0.80771599D-02 -0.30722250D-03  0.41093491D-03
  0.31013870D-03  0.16570798D-02  0.10420163D-02  0.16507288D-03 -0.62629786D-03
 -0.39383290D-03 -0.62389748D-04 -0.17233198D-02 -0.10836697D-02 -0.17167149D-03
  0.52400917D+00  0.50679886D+00  0.15794707D+00 -0.18092002D-02  0.24199514D-02
  0.18263734D-02  0.10243125D-02  0.64411518D-03  0.10203867D-03  0.11088373D-02
  0.69726666D-03  0.11045875D-03 -0.10055075D-02 -0.63229007D-03 -0.10016537D-03
 -0.13637613D+01 -0.13189705D+01 -0.41106550D+00  0.44191248D-02 -0.59109365D-02
 -0.44610719D-02 -0.14747320D-02 -0.92735104D-03 -0.14690798D-03  0.16610057D-02
  0.10444850D-02  0.16546396D-03  0.25221924D-03  0.15860223D-03  0.25125258D-04
  0.17185904D+01  0.16621458D+01  0.51801825D+00 -0.55876525D-02  0.74739366D-02
  0.56406914D-02 -0.23237200D-02 -0.14612175D-02 -0.23148140D-03 -0.13257886D-02
 -0.83369146D-03 -0.13207073D-03  0.61930994D-03  0.38943871D-03  0.61693635D-04
 -0.14450651D+01 -0.13976041D+01 -0.43557215D+00  0.43547303D-02 -0.58248036D-02
 -0.43960661D-02 -0.45622789D-03 -0.28688834D-03 -0.45447933D-04 -0.25198258D-02
 -0.15845341D-02 -0.25101682D-03 -0.33215977D-03 -0.20887098D-03 -0.33088672D-04
  0.57401908D-01  0.55516626D-01  0.17302108D-01  0.40641850D-04 -0.54361758D-04
 -0.41027630D-04 -0.68117768D-03 -0.42834281D-03 -0.67856697D-04 -0.34901912D-03
 -0.21947259D-03 -0.34768145D-04 -0.37774656D-03 -0.23753717D-03 -0.37629879D-04
 -0.45624264D-03 -0.44125802D-03 -0.13752085D-03  0.11845018D-02  0.11455986D-02
  0.35703305D-03  0.11124378D-02  0.10759014D-02  0.33531149D-03 -0.14832070D-02
 -0.14344932D-02 -0.44706887D-03 -0.14172507D-02 -0.13707032D-02 -0.42718831D-03
  0.12112918D-02  0.11715087D-02  0.36510809D-03  0.12557080D-02  0.12144661D-02
  0.37849604D-03  0.20042520D-04  0.19384253D-04  0.60412248D-05 -0.34365726D-04
 -0.33237034D-04 -0.10358532D-04
MO    9     MO 0.0        OCC NO =    1.9995818  ORB. ENERGY =    0.000000
  0.77062728D+00  0.74531715D+00  0.23228280D+00  0.18699889D+00 -0.25012613D+00
 -0.18877392D+00 -0.56030848D-01 -0.35233701D-01 -0.55816102D-02 -0.31841453D+00
 -0.20022760D+00 -0.31719416D-01 -0.87518691D-01 -0.55034101D-01 -0.87183263D-02
 -0.60390314D+00 -0.58406883D+00 -0.18202874D+00 -0.14243146D+00  0.19051358D+00
  0.14378344D+00 -0.39573899D-02 -0.24885129D-02 -0.39422226D-03 -0.16319944D+00
 -0.10262419D+00 -0.16257396D-01 -0.34157791D-01 -0.21479335D-01 -0.34026876D-02
 -0.19858161D-02 -0.19205949D-02 -0.59856553D-03  0.37123444D-03 -0.49655605D-03
 -0.37475826D-03 -0.62338632D-02 -0.39200205D-02 -0.62099710D-03  0.29812376D-03
  0.18746822D-03  0.29698116D-04 -0.46041151D-02 -0.28951911D-02 -0.45864692D-03
  0.48129990D-02  0.46549231D-02  0.14507362D-02 -0.30714550D-03  0.41083191D-03
  0.31006097D-03 -0.32848963D-02 -0.20656309D-02 -0.32723065D-03 -0.29541868D-02
 -0.18576719D-02 -0.29428644D-03 -0.38714124D-02 -0.24344480D-02 -0.38565747D-03
  0.39811850D-02  0.38504288D-02  0.12000105D-02  0.49599757D-03 -0.66343682D-03
 -0.50070566D-03  0.50232635D-02  0.31587629D-02  0.50040111D-03  0.13162797D-02
  0.82771198D-03  0.13112348D-03 -0.26770353D-03 -0.16833916D-03 -0.26667751D-04
  0.73289616D-05  0.70882525D-05  0.22090987D-05  0.39952526D-04 -0.53439731D-04
 -0.40331762D-04 -0.35845866D-03 -0.22540842D-03 -0.35708481D-04  0.88326593D-04
  0.55542132D-04  0.87988068D-05  0.26408334D-03  0.16606269D-03  0.26307120D-04
 -0.29453018D-03 -0.28485677D-03 -0.88777414D-04  0.90664728D-05 -0.12127140D-04
 -0.91525333D-05  0.47986244D-03  0.30175038D-03  0.47802330D-04  0.48364520D-03
  0.30412908D-03  0.48179156D-04 -0.67873426D-03 -0.42680632D-03 -0.67613291D-04
 -0.27538645D-01 -0.26634179D-01 -0.83007102D-02 -0.12228503D-02  0.16356610D-02
  0.12344578D-02 -0.15004243D-01 -0.94350708D-02 -0.14946737D-02 -0.47051388D-01
 -0.29587175D-01 -0.46871057D-02 -0.16705123D-01 -0.10504630D-01 -0.16641098D-02
 -0.13390582D-02 -0.12950788D-02 -0.40361950D-03  0.54869968D-03  0.53067844D-03
  0.16538929D-03 -0.29932233D-02 -0.28949152D-02 -0.90221863D-03 -0.20525205D-03
 -0.19851084D-03 -0.61867159D-04 -0.76648310D-04 -0.74130909D-04 -0.23103366D-04
  0.32759438D-03  0.31683502D-03  0.98743637D-04  0.20832050D-03  0.20147851D-03
  0.62792053D-04  0.52759643D-02  0.51026830D-02  0.15902834D-02  0.22733438D-02
  0.21986792D-02  0.68523226D-03
MO   10     MO 0.0        OCC NO =    1.9995542  ORB. ENERGY =    0.000000
  0.59650528D+00  0.57691393D+00  0.17979887D+00  0.14073429D+00 -0.18824348D+00
 -0.14207016D+00 -0.45778220D-01 -0.28786573D-01 -0.45602768D-02 -0.18252322D+00
 -0.11477550D+00 -0.18182367D-01 -0.57310491D-01 -0.36038374D-01 -0.57090840D-02
  0.78936757D+00  0.76344195D+00  0.23793151D+00  0.18853910D+00 -0.25218628D+00
 -0.19032875D+00  0.93391033D-01  0.58726788D-01  0.93033099D-02  0.12892064D+00
  0.81068761D-01  0.12842654D-01  0.71899764D-01  0.45212501D-01  0.71624198D-02
  0.15752335D-01  0.15234973D-01  0.47480756D-02  0.38285666D-02 -0.51210171D-02
 -0.38649080D-02 -0.10998723D-02 -0.69162921D-03 -0.10956569D-03 -0.16926055D-02
 -0.10643558D-02 -0.16861184D-03 -0.10442908D-01 -0.65667807D-02 -0.10402884D-02
  0.24361186D-01  0.23561079D-01  0.73429591D-02  0.37928083D-02 -0.50731874D-02
 -0.38288102D-02  0.22496633D-01  0.14146487D-01  0.22410411D-02  0.64814191D-03
  0.40756903D-03  0.64565782D-04  0.13303016D-01  0.83652935D-02  0.13252030D-02
  0.19612471D-02  0.18968328D-02  0.59115994D-03 -0.13274600D-03  0.17755849D-03
  0.13400604D-03 -0.15988370D-02 -0.10053916D-02 -0.15927093D-03 -0.30477015D-02
 -0.19164765D-02 -0.30360207D-03  0.83290178D-03  0.52375099D-03  0.82970956D-04
  0.14819539D-02  0.14332813D-02  0.44669117D-03  0.31150986D-03 -0.41666961D-03
 -0.31446677D-03  0.29102105D-02  0.18300185D-02  0.28990567D-03 -0.12035883D-02
 -0.75684863D-03 -0.11989754D-03 -0.20844890D-02 -0.13107826D-02 -0.20764999D-03
  0.18930758D-02  0.18309005D-02  0.57061171D-03  0.14421594D-03 -0.19290046D-03
 -0.14558486D-03 -0.14704029D-02 -0.92462878D-03 -0.14647673D-03 -0.92554948D-03
 -0.58201035D-03 -0.92200218D-04  0.67274768D-03  0.42304179D-03  0.67016927D-04
  0.14900036D+00  0.14410666D+00  0.44911752D-01  0.86134467D-02 -0.11521181D-01
 -0.86952070D-02 -0.59178971D-02 -0.37213325D-02 -0.58952159D-03 -0.84016349D-02
 -0.52831735D-02 -0.83694344D-03 -0.44224163D-02 -0.27809340D-02 -0.44054667D-03
  0.19397316D-02  0.18760240D-02  0.58467472D-03 -0.86940939D-03 -0.84085491D-03
 -0.26205775D-03 -0.66551082D-03 -0.64365309D-03 -0.20059855D-03  0.78455885D-03
  0.75879117D-03  0.23648206D-03  0.91005612D-04  0.88016666D-04  0.27430950D-04
 -0.77571824D-03 -0.75024091D-03 -0.23381732D-03 -0.88638091D-05 -0.85726902D-05
 -0.26717331D-05 -0.29242199D-02 -0.28281782D-02 -0.88141962D-03 -0.54684914D-02
 -0.52888868D-02 -0.16483150D-02
MO   11     MO 0.0        OCC NO =    1.9991075  ORB. ENERGY =    0.000000
 -0.24590450D-01 -0.23782812D-01 -0.74120638D-02 -0.70070138D-02  0.93724470D-02
  0.70735256D-02  0.16816299D-01  0.10574540D-01  0.16751848D-02 -0.21842244D-02
 -0.13734989D-02 -0.21758531D-03  0.10059307D-01  0.63255622D-02  0.10020753D-02
 -0.27966974D-01 -0.27048440D-01 -0.84298173D-02 -0.59112506D-02  0.79067752D-02