 opt proline b3lyp
GAUSSIAN             31 MOL ORBITALS    147 PRIMITIVES       17 NUCLEI
  O    1    (CENTRE  1)  -4.26272744  1.89790039 -0.27787058  CHARGE =  8.0
  O    2    (CENTRE  2)  -3.27017387 -2.42389229 -0.69985773  CHARGE =  8.0
  N    3    (CENTRE  3)   1.49512588 -2.01230671  1.39173055  CHARGE =  7.0
  C    4    (CENTRE  4)  -0.11658693  0.39239563  1.39909783  CHARGE =  6.0
  C    5    (CENTRE  5)   1.46063448  2.52939083  0.05626166  CHARGE =  6.0
  C    6    (CENTRE  6)   4.02312472  1.23059956 -0.64232905  CHARGE =  6.0
  C    7    (CENTRE  7)   3.33384478 -1.62343794 -0.80601062  CHARGE =  6.0
  C    8    (CENTRE  8)  -2.68438644 -0.24352461  0.02910177  CHARGE =  6.0
  H    9    (CENTRE  9)  -0.56287508  0.92024458  3.38115701  CHARGE =  1.0
  H   10    (CENTRE 10)   1.73424273  4.16486247  1.31449098  CHARGE =  1.0
  H   11    (CENTRE 11)   0.47326185  3.19412780 -1.65430451  CHARGE =  1.0
  H   12    (CENTRE 12)   4.81578302  1.95840757 -2.42569433  CHARGE =  1.0
  H   13    (CENTRE 13)   5.41715774  1.53144805  0.87564186  CHARGE =  1.0
  H   14    (CENTRE 14)   2.47310421 -2.05383399 -2.67160025  CHARGE =  1.0
  H   15    (CENTRE 15)   4.99388615 -2.86749464 -0.54807200  CHARGE =  1.0
  H   16    (CENTRE 16)   0.17205119 -3.40640555  0.75813505  CHARGE =  1.0
  H   17    (CENTRE 17)  -5.81906611  1.14018503 -1.16677064  CHARGE =  1.0
CENTRE ASSIGNMENTS    1  1  1  1  1  1  1  1  1  1  1  1  1  1  1  2  2  2  2  2
CENTRE ASSIGNMENTS    2  2  2  2  2  2  2  2  2  2  3  3  3  3  3  3  3  3  3  3
CENTRE ASSIGNMENTS    3  3  3  3  3  4  4  4  4  4  4  4  4  4  4  4  4  4  4  4
CENTRE ASSIGNMENTS    5  5  5  5  5  5  5  5  5  5  5  5  5  5  5  6  6  6  6  6
CENTRE ASSIGNMENTS    6  6  6  6  6  6  6  6  6  6  7  7  7  7  7  7  7  7  7  7
CENTRE ASSIGNMENTS    7  7  7  7  7  8  8  8  8  8  8  8  8  8  8  8  8  8  8  8
CENTRE ASSIGNMENTS    9  9  9 10 10 10 11 11 11 12 12 12 13 13 13 14 14 14 15 15
CENTRE ASSIGNMENTS   15 16 16 16 17 17 17
TYPE ASSIGNMENTS      1  1  1  1  1  1  2  2  2  3  3  3  4  4  4  1  1  1  1  1
TYPE ASSIGNMENTS      1  2  2  2  3  3  3  4  4  4  1  1  1  1  1  1  2  2  2  3
TYPE ASSIGNMENTS      3  3  4  4  4  1  1  1  1  1  1  2  2  2  3  3  3  4  4  4
TYPE ASSIGNMENTS      1  1  1  1  1  1  2  2  2  3  3  3  4  4  4  1  1  1  1  1
TYPE ASSIGNMENTS      1  2  2  2  3  3  3  4  4  4  1  1  1  1  1  1  2  2  2  3
TYPE ASSIGNMENTS      3  3  4  4  4  1  1  1  1  1  1  2  2  2  3  3  3  4  4  4
TYPE ASSIGNMENTS      1  1  1  1  1  1  1  1  1  1  1  1  1  1  1  1  1  1  1  1
TYPE ASSIGNMENTS      1  1  1  1  1  1  1
EXPONENTS  0.1307093D+03 0.2380887D+02 0.6443608D+01 0.5033151D+01 0.1169596D+01
EXPONENTS  0.3803890D+00 0.5033151D+01 0.1169596D+01 0.3803890D+00 0.5033151D+01
EXPONENTS  0.1169596D+01 0.3803890D+00 0.5033151D+01 0.1169596D+01 0.3803890D+00
EXPONENTS  0.1307093D+03 0.2380887D+02 0.6443608D+01 0.5033151D+01 0.1169596D+01
EXPONENTS  0.3803890D+00 0.5033151D+01 0.1169596D+01 0.3803890D+00 0.5033151D+01
EXPONENTS  0.1169596D+01 0.3803890D+00 0.5033151D+01 0.1169596D+01 0.3803890D+00
EXPONENTS  0.9910617D+02 0.1805231D+02 0.4885660D+01 0.3780456D+01 0.8784966D+00
EXPONENTS  0.2857144D+00 0.3780456D+01 0.8784966D+00 0.2857144D+00 0.3780456D+01
EXPONENTS  0.8784966D+00 0.2857144D+00 0.3780456D+01 0.8784966D+00 0.2857144D+00
EXPONENTS  0.7161684D+02 0.1304510D+02 0.3530512D+01 0.2941249D+01 0.6834831D+00
EXPONENTS  0.2222899D+00 0.2941249D+01 0.6834831D+00 0.2222899D+00 0.2941249D+01
EXPONENTS  0.6834831D+00 0.2222899D+00 0.2941249D+01 0.6834831D+00 0.2222899D+00
EXPONENTS  0.7161684D+02 0.1304510D+02 0.3530512D+01 0.2941249D+01 0.6834831D+00
EXPONENTS  0.2222899D+00 0.2941249D+01 0.6834831D+00 0.2222899D+00 0.2941249D+01
EXPONENTS  0.6834831D+00 0.2222899D+00 0.2941249D+01 0.6834831D+00 0.2222899D+00
EXPONENTS  0.7161684D+02 0.1304510D+02 0.3530512D+01 0.2941249D+01 0.6834831D+00
EXPONENTS  0.2222899D+00 0.2941249D+01 0.6834831D+00 0.2222899D+00 0.2941249D+01
EXPONENTS  0.6834831D+00 0.2222899D+00 0.2941249D+01 0.6834831D+00 0.2222899D+00
EXPONENTS  0.7161684D+02 0.1304510D+02 0.3530512D+01 0.2941249D+01 0.6834831D+00
EXPONENTS  0.2222899D+00 0.2941249D+01 0.6834831D+00 0.2222899D+00 0.2941249D+01
EXPONENTS  0.6834831D+00 0.2222899D+00 0.2941249D+01 0.6834831D+00 0.2222899D+00
EXPONENTS  0.7161684D+02 0.1304510D+02 0.3530512D+01 0.2941249D+01 0.6834831D+00
EXPONENTS  0.2222899D+00 0.2941249D+01 0.6834831D+00 0.2222899D+00 0.2941249D+01
EXPONENTS  0.6834831D+00 0.2222899D+00 0.2941249D+01 0.6834831D+00 0.2222899D+00
EXPONENTS  0.3425251D+01 0.6239137D+00 0.1688554D+00 0.3425251D+01 0.6239137D+00
EXPONENTS  0.1688554D+00 0.3425251D+01 0.6239137D+00 0.1688554D+00 0.3425251D+01
EXPONENTS  0.6239137D+00 0.1688554D+00 0.3425251D+01 0.6239137D+00 0.1688554D+00
EXPONENTS  0.3425251D+01 0.6239137D+00 0.1688554D+00 0.3425251D+01 0.6239137D+00
EXPONENTS  0.1688554D+00 0.3425251D+01 0.6239137D+00 0.1688554D+00 0.3425251D+01
EXPONENTS  0.6239137D+00 0.1688554D+00
MO    1     MO 0.0        OCC NO =    2.0000000  ORB. ENERGY =  -18.946711
  0.42244270D+01  0.40856819D+01  0.12733286D+01 -0.68642717D-02  0.91815180D-02
  0.69294286D-02 -0.82959902D-03 -0.52167413D-03 -0.82641946D-04 -0.68273002D-02
 -0.42931895D-02 -0.68011335D-03 -0.17938126D-02 -0.11279975D-02 -0.17869376D-03
  0.36748376D-02  0.35541430D-02  0.11076711D-02 -0.45356788D-04  0.60668368D-04
  0.45787322D-04 -0.94448131D-03 -0.59391519D-03 -0.94086144D-04  0.48966418D-03
  0.30791397D-03  0.48778747D-04 -0.34606230D-03 -0.21761326D-03 -0.34473597D-04
  0.61478017D-05  0.59458862D-05  0.18530730D-05 -0.32185980D-05  0.43051348D-05
  0.32491495D-05  0.57676487D-04  0.36268523D-04  0.57455433D-05 -0.14827255D-04
 -0.93237756D-05 -0.14770427D-05  0.31151641D-04  0.19588988D-04  0.31032248D-05
 -0.62705926D-04 -0.60646442D-04 -0.18900847D-04 -0.45333438D-04  0.60637135D-04
  0.45763751D-04 -0.21459872D-03 -0.13494543D-03 -0.21377624D-04  0.19099066D-03
  0.12010005D-03  0.19025866D-04 -0.52255261D-04 -0.32859510D-04 -0.52054985D-05
 -0.23317164D-04 -0.22551346D-04 -0.70282696D-05 -0.83971458D-05  0.11231861D-04
  0.84768529D-05  0.67610960D-05  0.42515586D-05  0.67351831D-06  0.10975867D-05
  0.69019197D-06  0.10933800D-06 -0.74116362D-04 -0.46606358D-04 -0.73832301D-05
  0.39581066D-05  0.38281084D-05  0.11930542D-05  0.23349285D-05 -0.31231555D-05
 -0.23570921D-05  0.80043901D-05  0.50333753D-05  0.79737121D-06 -0.78754883D-05
 -0.49523184D-05 -0.78453044D-06  0.43027883D-05  0.27057088D-05  0.42862973D-06
  0.10937973D-05  0.10578731D-05  0.32969285D-06 -0.37381921D-07  0.50001339D-07
  0.37736756D-07  0.47024072D-06  0.29569998D-06  0.46843845D-07 -0.18059529D-05
 -0.11356317D-05 -0.17990313D-06 -0.11755492D-05 -0.73921685D-06 -0.11710437D-06
  0.15962119D-02  0.15437867D-02  0.48113088D-03  0.77455541D-03 -0.10360304D-02
 -0.78190762D-03  0.25105999D-02  0.15787326D-02  0.25009776D-03 -0.36504617D-02
 -0.22955083D-02 -0.36364708D-03  0.43545353D-03  0.27382486D-03  0.43378459D-04
 -0.11561704D-04 -0.11181977D-04 -0.34849337D-05 -0.57522199D-06 -0.55632966D-06
 -0.17338366D-06 -0.36190649D-04 -0.35002020D-04 -0.10908601D-04  0.15535321D-05
  0.15025087D-05  0.46826632D-06  0.33986585D-06  0.32870346D-06  0.10244251D-06
 -0.71549632D-07 -0.69199689D-07 -0.21566520D-07 -0.24391913D-06 -0.23590796D-06
 -0.73522207D-07 -0.35291594D-04 -0.34132494D-04 -0.10637607D-04 -0.17537820D-02
 -0.16961816D-02 -0.52862572D-03
MO    2     MO 0.0        OCC NO =    2.0000000  ORB. ENERGY =  -18.881686
 -0.39983335D-02 -0.38670141D-02 -0.12051794D-02 -0.55974619D-04  0.74870574D-04
  0.56505939D-04 -0.49868591D-03 -0.31358708D-03 -0.49677462D-04 -0.70602155D-03
 -0.44396530D-03 -0.70331562D-04 -0.38283409D-03 -0.24073635D-03 -0.38136683D-04
  0.42246677D+01  0.40859147D+01  0.12734011D+01 -0.68898133D-02  0.92156819D-02
  0.69552126D-02  0.24650952D-02  0.15501180D-02  0.24556473D-03  0.88341314D-02
  0.55551389D-02  0.88002733D-03  0.29941082D-02  0.18827756D-02  0.29826329D-03
 -0.11663031D-03 -0.11279976D-03 -0.35154758D-04 -0.66560019D-04  0.89029403D-04
  0.67191818D-04 -0.25049059D-03 -0.15751520D-03 -0.24953054D-04 -0.37955002D-03
 -0.23867124D-03 -0.37809534D-04 -0.13838317D-03 -0.87019050D-04 -0.13785279D-04
 -0.65083277D-04 -0.62945712D-04 -0.19617429D-04 -0.30830185D-04  0.41237863D-04
  0.31122830D-04  0.52333385D-05  0.32908637D-05  0.52132809D-06 -0.44898815D-03
 -0.28233580D-03 -0.44726734D-04 -0.94613390D-04 -0.59495439D-04 -0.94250770D-05
 -0.29397385D-05 -0.28431871D-05 -0.88609724D-06 -0.35862212D-05  0.47968605D-05
  0.36202622D-05  0.16353558D-04  0.10283556D-04  0.16290880D-05 -0.23176646D-04
 -0.14574097D-04 -0.23087818D-05  0.26371825D-04  0.16583311D-04  0.26270751D-05
  0.31040245D-05  0.30020774D-05  0.93561639D-06  0.18528195D-05 -0.24782958D-05
 -0.18704068D-05  0.73814449D-05  0.46416506D-05  0.73531544D-06 -0.33063475D-05
 -0.20791200D-05 -0.32936754D-06 -0.21983014D-05 -0.13823509D-05 -0.21898761D-06
 -0.14005126D-04 -0.13545148D-04 -0.42214310D-05 -0.42597303D-05  0.56977334D-05
  0.43001644D-05 -0.21411983D-04 -0.13464430D-04 -0.21329919D-05 -0.61296989D-05
 -0.38545191D-05 -0.61062059D-06 -0.47357600D-05 -0.29779730D-05 -0.47176095D-06
  0.18379179D-02  0.17775542D-02  0.55398600D-03  0.12513504D-02 -0.16737822D-02
 -0.12632284D-02  0.15716207D-02  0.98827727D-03  0.15655972D-03  0.57587317D-02
  0.36212450D-02  0.57366605D-03  0.19371555D-02  0.12181354D-02  0.19297311D-03
  0.10521223D-04  0.10175668D-04  0.31713114D-05  0.13359725D-05  0.12920944D-05
  0.40268940D-06  0.20306794D-05  0.19639847D-05  0.61208825D-06  0.32827159D-06
  0.31748999D-06  0.98947761D-07  0.62715975D-06  0.60656161D-06  0.18903876D-06
  0.31829829D-06  0.30784425D-06  0.95941607D-07  0.20088147D-05  0.19428381D-05
  0.60549778D-06 -0.26767615D-03 -0.25888472D-03 -0.80683059D-04 -0.33533445D-04
 -0.32432088D-04 -0.10107665D-04
MO    3     MO 0.0        OCC NO =    2.0000000  ORB. ENERGY =  -14.098856
  0.25800702D-04  0.24953316D-04  0.77768586D-05  0.40858819D-05 -0.54651971D-05
 -0.41246658D-05 -0.70088687D-04 -0.44073647D-04 -0.69820062D-05 -0.44419572D-04
 -0.27932219D-04 -0.44249327D-05 -0.53523772D-04 -0.33657184D-04 -0.53318634D-05
 -0.26326949D-03 -0.25462279D-03 -0.79354803D-04 -0.64842580D-04  0.86732189D-04
  0.65458077D-04  0.40920252D-03  0.25731752D-03  0.40763419D-04 -0.35376870D-03
 -0.22245925D-03 -0.35241283D-04  0.14922552D-03  0.93837011D-04  0.14865359D-04
  0.34291335D+01  0.33165086D+01  0.10336109D+01 -0.66655299D-02  0.89156847D-02
  0.67288003D-02 -0.30420601D-02 -0.19129290D-02 -0.30304009D-03  0.10277595D-02
  0.64628274D-03  0.10238204D-03 -0.53375320D-02 -0.33563834D-02 -0.53170752D-03
  0.15860047D-02  0.15339147D-02  0.47805422D-03  0.91821378D-03 -0.12281851D-02
 -0.92692962D-03 -0.24433329D-02 -0.15364333D-02 -0.24339684D-03  0.36621036D-02
  0.23028290D-02  0.36480680D-03  0.11031549D-03  0.69369337D-04  0.10989269D-04
 -0.54340860D-04 -0.52556114D-04 -0.16379445D-04 -0.60552078D-04  0.80993296D-04
  0.61126849D-04  0.96513315D-05  0.60690163D-05  0.96143414D-06 -0.30871642D-03
 -0.19412917D-03 -0.30753322D-04  0.96032191D-05  0.60387618D-05  0.95664133D-06
  0.67431428D-06  0.65216741D-06  0.20325210D-06 -0.47816363D-04  0.63958248D-04
  0.48270244D-04 -0.63345082D-04 -0.39833087D-04 -0.63102302D-05 -0.17367172D-03
 -0.10920944D-03 -0.17300610D-04 -0.21007059D-04 -0.13209802D-04 -0.20926546D-05
  0.15760618D-02  0.15242984D-02  0.47505723D-03  0.91792148D-03 -0.12277941D-02
 -0.92663455D-03  0.28290533D-02  0.17789846D-02  0.28182105D-03  0.54607346D-03
  0.34338565D-03  0.54398056D-04 -0.32589341D-02 -0.20493052D-02 -0.32464438D-03
 -0.68068080D-04 -0.65832484D-04 -0.20517110D-04 -0.74884827D-04  0.10016451D-03
  0.75595647D-04  0.25416244D-03  0.15982417D-03  0.25318833D-04 -0.19457827D-03
 -0.12235604D-03 -0.19383252D-04  0.89814401D-04  0.56477706D-04  0.89470174D-05
  0.55338093D-04  0.53520594D-04  0.16680032D-04  0.19200617D-05  0.18570001D-05
  0.57874582D-06 -0.70724232D-05 -0.68401398D-05 -0.21317728D-05 -0.31530079D-04
 -0.30494520D-04 -0.95038099D-05 -0.85012708D-05 -0.82220590D-05 -0.25624567D-05
  0.11865433D-03  0.11475730D-03  0.35764838D-04  0.61325028D-04  0.59310897D-04
  0.18484616D-04 -0.21810090D-02 -0.21093769D-02 -0.65740065D-03 -0.82847191D-06
 -0.80126196D-06 -0.24971835D-06
MO    4     MO 0.0        OCC NO =    2.0000000  ORB. ENERGY =  -10.105593
  0.26049126D-02  0.25193581D-02  0.78517388D-03  0.12895811D-02 -0.17249189D-02
 -0.13018220D-02 -0.41940747D-02 -0.26373467D-02 -0.41780003D-03  0.48002312D-02
  0.30185142D-02  0.47818336D-03 -0.10075951D-02 -0.63360282D-03 -0.10037333D-03
  0.23457373D-02  0.22686950D-02  0.70705313D-03  0.18024004D-02 -0.24108561D-02
 -0.18195091D-02 -0.11869941D-02 -0.74641375D-03 -0.11824448D-03 -0.50941054D-02
 -0.32033101D-02 -0.50745815D-03 -0.16177736D-02 -0.10172995D-02 -0.16115733D-03
 -0.13778016D-03 -0.13325497D-03 -0.41529755D-04 -0.11914322D-03  0.15936369D-03
  0.12027415D-03 -0.23874302D-03 -0.15012802D-03 -0.23782800D-04 -0.92561560D-04
 -0.58205193D-04 -0.92206804D-05 -0.25569904D-04 -0.16079042D-04 -0.25471904D-05
 -0.22341812D-01 -0.21608028D-01 -0.67342784D-02  0.10969003D-02 -0.14671927D-02
 -0.11073122D-02  0.38508577D-02  0.24215226D-02  0.38360987D-03  0.11266403D-02
  0.70846167D-03  0.11223223D-03  0.21438175D-02  0.13480900D-02  0.21356010D-03
 -0.37730548D-03 -0.36491343D-03 -0.11372758D-03 -0.53430412D-04  0.71467492D-04
  0.53937583D-04 -0.38433400D-04 -0.24167953D-04 -0.38286099D-05  0.60839532D-04
  0.38257530D-04  0.60606355D-05 -0.71341949D-04 -0.44861732D-04 -0.71068521D-05
  0.36858187D-04  0.35647634D-04  0.11109810D-04  0.19864936D-05 -0.26570957D-05
 -0.20053498D-05 -0.14066940D-04 -0.88456696D-05 -0.14013027D-05 -0.14935326D-04
 -0.93917335D-05 -0.14878084D-05 -0.33668574D-04 -0.21171703D-04 -0.33539534D-05
  0.23293922D-03  0.22528868D-03  0.70212640D-04 -0.15304147D-04  0.20470533D-04
  0.15449416D-04 -0.10552984D-04 -0.66359996D-05 -0.10512538D-05 -0.25605990D-04
 -0.16101734D-04 -0.25507852D-05 -0.46010057D-04 -0.28932358D-04 -0.45833716D-05
  0.26839539D+01  0.25958033D+01  0.80899852D+00 -0.60512061D-02  0.80939769D-02
  0.61086451D-02 -0.98533084D-04 -0.61960248D-04 -0.98155442D-05 -0.73927352D-03
 -0.46487503D-03 -0.73644014D-04 -0.19268859D-03 -0.12116775D-03 -0.19195008D-04
 -0.29574483D-04 -0.28603152D-04 -0.89143533D-05 -0.12099137D-04 -0.11701759D-04
 -0.36469271D-05 -0.16881588D-03 -0.16327137D-03 -0.50884554D-04  0.19548789D-05
  0.18906738D-05  0.58924043D-06 -0.26138116D-06 -0.25279648D-06 -0.78785620D-07
 -0.45879091D-04 -0.44372260D-04 -0.13828895D-04 -0.18804060D-05 -0.18186468D-05
 -0.56679276D-06 -0.30213020D-03 -0.29220717D-03 -0.91068212D-04 -0.47400953D-03
 -0.45844138D-03 -0.14287615D-03
MO    5     MO 0.0        OCC NO =    2.0000000  ORB. ENERGY =  -10.047879
 -0.60924360D-04 -0.58923389D-04 -0.18363847D-04 -0.58925781D-04  0.78817993D-04
  0.59485115D-04  0.15417586D-03  0.96949917D-04  0.15358496D-04 -0.12452390D-03
 -0.78303972D-04 -0.12404665D-04  0.63343645D-04  0.39832184D-04  0.63100872D-05
 -0.10333235D-03 -0.99938548D-04 -0.31146480D-04 -0.42310255D-04  0.56593384D-04
  0.42711871D-04  0.54802135D-03  0.34461053D-03  0.54592098D-04 -0.26020158D-04
 -0.16362174D-04 -0.25920432D-05  0.25167361D-03  0.15825912D-03  0.25070903D-04
  0.26989823D-02  0.26103382D-02  0.81352839D-03  0.11485955D-02 -0.15363392D-02
 -0.11594981D-02  0.31565574D-02  0.19849280D-02  0.31444594D-03 -0.47637084D-02
 -0.29955477D-02 -0.47454508D-03 -0.27866200D-03 -0.17523014D-03 -0.27759399D-04
  0.26814094D+01  0.25933425D+01  0.80823157D+00 -0.68878967D-02  0.92131183D-02
  0.69532778D-02 -0.27544995D-03 -0.17321032D-03 -0.27439424D-04  0.13340055D-03
  0.83885845D-04  0.13288927D-04  0.27953072D-03  0.17577642D-03  0.27845937D-04
 -0.52361496D-01 -0.50641759D-01 -0.15782824D-01  0.12607941D-02 -0.16864139D-02
 -0.12727618D-02  0.25484977D-02  0.16025638D-02  0.25387303D-03  0.33614969D-02
  0.21137995D-02  0.33486135D-03 -0.21372505D-02 -0.13439605D-02 -0.21290592D-03
 -0.15550647D-02 -0.15039909D-02 -0.46872827D-03 -0.62907495D-04  0.84143857D-04
  0.63504624D-04 -0.10117592D-03 -0.63622135D-04 -0.10078815D-04  0.79568321D-04
  0.50034696D-04  0.79263364D-05 -0.85602147D-04 -0.53828927D-04 -0.85274064D-05
 -0.13663824D-01 -0.13215055D-01 -0.41185555D-02  0.76728813D-04 -0.10263099D-03
 -0.77457136D-04  0.38671343D-03  0.24317578D-03  0.38523130D-04 -0.29361126D-03
 -0.18463064D-03 -0.29248595D-04 -0.63067110D-04 -0.39658291D-04 -0.62825396D-05
  0.26452405D-01  0.25583614D-01  0.79732950D-02  0.10800689D-02 -0.14446794D-02
 -0.10903211D-02 -0.42256697D-02 -0.26572145D-02 -0.42094742D-03 -0.10224326D-02
 -0.64293306D-03 -0.10185140D-03 -0.21935642D-02 -0.13793720D-02 -0.21851570D-03
 -0.25338283D-02 -0.24506084D-02 -0.76374760D-03  0.10477552D-03  0.10133432D-03
  0.31581481D-04  0.86212132D-04  0.83380620D-04  0.25986097D-04 -0.35252271D-04
 -0.34094461D-04 -0.10625754D-04 -0.37290235D-05 -0.36065492D-05 -0.11240039D-05
  0.93303345D-05  0.90238933D-05  0.28123534D-05 -0.37047768D-04 -0.35830988D-04
 -0.11166954D-04 -0.12393109D-03 -0.11986075D-03 -0.37355361D-04 -0.44338534D-04
 -0.42882300D-04 -0.13364540D-04
MO    6     MO 0.0        OCC NO =    2.0000000  ORB. ENERGY =  -10.031435
  0.16924061D-05  0.16368215D-05  0.51012577D-06  0.40030224D-06 -0.53543659D-06
 -0.40410198D-06 -0.30984287D-05 -0.19483751D-05 -0.30865536D-06 -0.18247764D-06
 -0.11474684D-06 -0.18177827D-07 -0.23608478D-05 -0.14845644D-05 -0.23517995D-06
 -0.37424120D-04 -0.36194979D-04 -0.11280394D-04 -0.91277609D-05  0.12209118D-04
  0.92144032D-05  0.68639396D-04  0.43162294D-04  0.68376326D-05 -0.23420090D-04
 -0.14727181D-04 -0.23330329D-05  0.66222958D-06  0.41642773D-06  0.65969149D-07
  0.27182969D-02  0.26290184D-02  0.81935019D-03  0.11563568D-02 -0.15467206D-02
 -0.11673331D-02 -0.37364338D-02 -0.23495699D-02 -0.37221134D-03 -0.65198039D-03
 -0.40998277D-03 -0.64948158D-04  0.42528469D-02  0.26743042D-02  0.42365472D-03
  0.13935990D-01  0.13478283D-01  0.42005920D-02  0.42856557D-05 -0.57324107D-05
 -0.43263359D-05 -0.23089435D-03 -0.14519256D-03 -0.23000941D-04  0.13641493D-03
  0.85781367D-04  0.13589210D-04  0.38151740D-03  0.23990838D-03  0.38005518D-04
 -0.80454548D-02 -0.77812136D-02 -0.24250644D-02 -0.38647391D-04  0.51694008D-04
  0.39014239D-04  0.24578178D-03  0.15455418D-03  0.24483978D-04  0.93301392D-04
  0.58670419D-04  0.92943801D-05  0.67701445D-04  0.42572485D-04  0.67441969D-05
 -0.93112176D-01 -0.90054043D-01 -0.28065912D-01  0.13970830D-02 -0.18687114D-02
 -0.14103444D-02  0.10338113D-02  0.65008827D-03  0.10298490D-03  0.47395860D-02
  0.29803788D-02  0.47214208D-03  0.30147468D-03  0.18957537D-03  0.30031923D-04
  0.26802237D+01  0.25921956D+01  0.80787415D+00 -0.70449994D-02  0.94232559D-02
  0.71118718D-02  0.32156145D-03  0.20220647D-03  0.32032902D-04  0.23316383D-03
  0.14661967D-03  0.23227019D-04 -0.33508305D-03 -0.21070921D-03 -0.33379879D-04
 -0.14950370D-03 -0.14459347D-03 -0.45063470D-04 -0.52182815D-05  0.69798731D-05
  0.52678144D-05  0.23875464D-04  0.15013533D-04  0.23783958D-05 -0.77846143D-05
 -0.48951744D-05 -0.77547786D-06 -0.13068680D-04 -0.82179367D-05 -0.13018592D-05
 -0.57395128D-04 -0.55510069D-04 -0.17300064D-04 -0.37216532D-04 -0.35994209D-04
 -0.11217823D-04  0.19253913D-04  0.18621547D-04  0.58035228D-05  0.13774107D-03
  0.13321717D-03  0.41517972D-04  0.12081456D-03  0.11684659D-03  0.36415977D-04
 -0.25169018D-02 -0.24342379D-02 -0.75864561D-03 -0.25275629D-02 -0.24445488D-02
 -0.76185909D-03 -0.11323683D-03 -0.10951773D-03 -0.34131892D-04  0.23217933D-06
  0.22455374D-06  0.69983592D-07
MO    7     MO 0.0        OCC NO =    2.0000000  ORB. ENERGY =  -10.021882
 -0.49686151D-04 -0.48054282D-04 -0.14976421D-04 -0.15453898D-04  0.20670838D-04
  0.15600589D-04  0.72337409D-04  0.45487704D-04  0.72060165D-05  0.21103085D-04
  0.13270186D-04  0.21022205D-05 -0.19753812D-04 -0.12421727D-04 -0.19678103D-05
 -0.41018206D-05 -0.39671023D-05 -0.12363725D-05 -0.15398753D-06  0.20597077D-06
  0.15544921D-06  0.10040986D-04  0.63140412D-05  0.10002502D-05  0.15636760D-04
  0.98328141D-05  0.15576830D-05 -0.19312945D-04 -0.12144498D-04 -0.19238925D-05
 -0.22091730D-04 -0.21366159D-04 -0.66588985D-05 -0.39561023D-04  0.52916065D-04
  0.39936543D-04  0.34605947D-04  0.21761148D-04  0.34473315D-05  0.12571449D-03
  0.79052645D-04  0.12523267D-04 -0.86073865D-04 -0.54125556D-04 -0.85743975D-05
  0.55986463D-01  0.54147670D-01  0.16875464D-01  0.99119409D-03 -0.13258022D-02
 -0.10006027D-02 -0.24813460D-02 -0.15603370D-02 -0.24718359D-03 -0.34547347D-02
 -0.21724299D-02 -0.34414940D-03  0.21484159D-02  0.13509816D-02  0.21401818D-03
  0.26650629D+01  0.25775328D+01  0.80330440D+00 -0.72084926D-02  0.96419412D-02
  0.72769169D-02  0.37282749D-03  0.23444393D-03  0.37139858D-04  0.29842401D-04
  0.18765703D-04  0.29728026D-05 -0.27053684D-03 -0.17012083D-03 -0.26949997D-04
 -0.29017206D+00 -0.28064178D+00 -0.87463786D-01  0.19062334D-02 -0.25497412D-02
 -0.19243277D-02  0.40757089D-02  0.25629152D-02  0.40600882D-03 -0.21920029D-02
 -0.13783903D-02 -0.21836017D-03 -0.11137101D-02 -0.70033083D-03 -0.11094417D-03
 -0.26828196D-02 -0.25947063D-02 -0.80865663D-03 -0.13627361D-03  0.18227696D-03
  0.13756714D-03  0.34652167D-03  0.21790212D-03  0.34519357D-04  0.47503039D-03
  0.29871186D-03  0.47320977D-04  0.29970510D-04  0.18846261D-04  0.29855644D-05
  0.96821188D-03  0.93641238D-03  0.29183884D-03 -0.71731224D-05  0.95946307D-05
  0.72412109D-05  0.14608244D-04  0.91860560D-05  0.14552256D-05  0.43774210D-04
  0.27526398D-04  0.43606439D-05 -0.49265348D-04 -0.30979373D-04 -0.49076532D-05
  0.62861609D-05  0.60797011D-05  0.18947773D-05 -0.25315920D-02 -0.24484456D-02
 -0.76307354D-03 -0.25383760D-02 -0.24550067D-02 -0.76511837D-03  0.33004698D-03
  0.31920707D-03  0.99482903D-04  0.31917842D-03  0.30869547D-03  0.96206896D-04
 -0.63519174D-06 -0.61432980D-06 -0.19145976D-06 -0.47373068D-04 -0.45817169D-04
 -0.14279210D-04 -0.16508867D-04 -0.15966657D-04 -0.49761096D-05  0.16316890D-05
  0.15780986D-05  0.49182440D-06
MO    8     MO 0.0        OCC NO =    2.0000000  ORB. ENERGY =  -10.017114
  0.17262240D-05  0.16695287D-05  0.52031918D-06 -0.14537323D-05  0.19444844D-05
  0.14675314D-05 -0.15927501D-04 -0.10015640D-04 -0.15866456D-05 -0.21384110D-04
 -0.13446902D-04 -0.21302152D-05 -0.11658941D-05 -0.73314550D-06 -0.11614256D-06
  0.35623161D-05  0.34453170D-05  0.10737548D-05  0.29693721D-05 -0.39717751D-05
 -0.29975579D-05  0.22827019D-05  0.14354242D-05  0.22739531D-06 -0.26422098D-04
 -0.16614924D-04 -0.26320832D-05 -0.15823683D-05 -0.99503564D-06 -0.15763036D-06
  0.15321490D-03  0.14818278D-03  0.46182102D-04 -0.64685999D-05  0.86522750D-05
  0.65300010D-05 -0.15538109D-03 -0.97707797D-04 -0.15478557D-04 -0.16452654D-03
 -0.10345870D-03 -0.16389597D-04 -0.40008351D-04 -0.25158325D-04 -0.39855013D-05
  0.83140275D-02  0.80409654D-02  0.25060177D-02  0.78016325D-04 -0.10435314D-03
 -0.78756869D-04 -0.32802650D-03 -0.20627187D-03 -0.32676929D-04 -0.31461698D-03
 -0.19783960D-03 -0.31341116D-04  0.16917969D-03  0.10638473D-03  0.16853128D-04
  0.29405882D+00  0.28440089D+00  0.88635334D-01  0.35719859D-03 -0.47778198D-03
 -0.36058918D-03 -0.42039569D-02 -0.26435609D-02 -0.41878447D-03  0.20357541D-02
  0.12801368D-02  0.20279518D-03  0.11303612D-02  0.71080148D-03  0.11260290D-03
  0.26643291D+01  0.25768231D+01  0.80308321D+00 -0.69704384D-02  0.93235245D-02
  0.70366030D-02  0.59390586D-03  0.37346394D-03  0.59162963D-04 -0.11863454D-03
 -0.74600579D-04 -0.11817985D-04  0.34447277D-04  0.21661372D-04  0.34315253D-05
  0.97474751D-01  0.94273335D-01  0.29380881D-01  0.89734335D-03 -0.12002692D-02
 -0.90586108D-03 -0.11967409D-02 -0.75254281D-03 -0.11921542D-03 -0.46672818D-02
 -0.29349121D-02 -0.46493938D-03 -0.25547335D-03 -0.16064850D-03 -0.25449421D-04
  0.73742101D-04  0.71320149D-04  0.22227375D-04  0.30311368D-05 -0.40543903D-05
 -0.30599088D-05  0.12560101D-05  0.78981287D-06  0.12511963D-06 -0.40631199D-04
 -0.25549988D-04 -0.40475474D-05 -0.39507061D-04 -0.24843100D-04 -0.39355645D-05
 -0.28985443D-05 -0.28033459D-05 -0.87368047D-06 -0.22088909D-03 -0.21363431D-03
 -0.66580483D-04 -0.23543482D-03 -0.22770231D-03 -0.70964863D-04 -0.25139745D-02
 -0.24314067D-02 -0.75776327D-03 -0.25265498D-02 -0.24435690D-02 -0.76155372D-03
 -0.54526800D-04 -0.52735947D-04 -0.16435491D-04 -0.39723443D-04 -0.38418784D-04
 -0.11973457D-04 -0.45631844D-04 -0.44133133D-04 -0.13754370D-04 -0.10986531D-05
 -0.10625694D-05 -0.33115648D-06
MO    9     MO 0.0        OCC NO =    2.0000000  ORB. ENERGY =   -1.024888
 -0.70431410D+00 -0.68118193D+00 -0.21229465D+00 -0.14020653D+00  0.18753757D+00
  0.14153740D+00 -0.70901288D-02 -0.44584633D-02 -0.70629549D-03 -0.22127869D+00
 -0.13914598D+00 -0.22043061D-01 -0.49439009D-01 -0.31088576D-01 -0.49249527D-02
 -0.53990503D+00 -0.52217264D+00 -0.16273840D+00 -0.10352169D+00  0.13846862D+00
  0.10450433D+00  0.44384200D-01  0.27909976D-01  0.44214091D-02  0.20762640D+00
  0.13056105D+00  0.20683064D-01  0.63230477D-01  0.39761021D-01  0.62988137D-02
 -0.31426193D-01 -0.30394046D-01 -0.94724964D-02 -0.52534169D-02  0.70268695D-02
  0.53032832D-02 -0.94381432D-02 -0.59349577D-02 -0.94019701D-03  0.44676903D-02
  0.28094036D-02  0.44505673D-03 -0.71235873D-02 -0.44795029D-02 -0.70962851D-03
 -0.55735922D-01 -0.53905358D-01 -0.16799945D-01 -0.81708696D-02  0.10929198D-01
  0.82484289D-02 -0.17994242D-01 -0.11315262D-01 -0.17925276D-02 -0.46269850D-02
 -0.29095723D-02 -0.46092514D-03 -0.10187771D-01 -0.64063438D-02 -0.10148725D-02
 -0.12339420D-01 -0.11934150D-01 -0.37193532D-02 -0.16718921D-02  0.22362908D-02
  0.16877620D-02 -0.33715220D-02 -0.21201035D-02 -0.33586002D-03 -0.26467154D-02
 -0.16643256D-02 -0.26365714D-03  0.87795756D-03  0.55208328D-03  0.87459267D-04
 -0.36960765D-02 -0.35746843D-02 -0.11140730D-02 -0.50303417D-03  0.67284885D-03
  0.50780906D-03 -0.10645097D-02 -0.66939225D-03 -0.10604298D-03 -0.35578144D-03
 -0.22372491D-03 -0.35441785D-04  0.35742997D-03  0.22476156D-03  0.35606007D-04
 -0.73034070D-02 -0.70635373D-02 -0.22013960D-02 -0.94090919D-03  0.12585421D-02
  0.94984046D-03 -0.19782430D-02 -0.12439723D-02 -0.19706611D-03  0.34490545D-03
  0.21688580D-03  0.34358355D-04  0.11683332D-02  0.73467927D-03  0.11638554D-03
 -0.34486044D+00 -0.33353400D+00 -0.10394798D+00 -0.48912585D-01  0.65424534D-01
  0.49376872D-01 -0.63872988D-01 -0.40165049D-01 -0.63628185D-02 -0.20181657D-01
 -0.12690767D-01 -0.20104308D-02 -0.34985681D-01 -0.21999935D-01 -0.34851593D-02
  0.17311588D-02  0.16743015D-02  0.52180663D-03  0.33903125D-03  0.32789626D-03
  0.10219094D-03  0.12075602D-02  0.11678996D-02  0.36398330D-03  0.80619085D-04
  0.77971270D-04  0.24300239D-04  0.10394974D-03  0.10053566D-03  0.31332574D-04
  0.45695466D-03  0.44194665D-03  0.13773547D-03  0.16799604D-03  0.16247845D-03
  0.50637437D-04  0.31487642D-02  0.30453477D-02  0.94910186D-03  0.27900615D-01
  0.26984260D-01  0.84098152D-02
MO   10     MO 0.0        OCC NO =    2.0000000  ORB. ENERGY =   -0.945981
  0.66534461D+00  0.64349234D+00  0.20054845D+00  0.13612811D+00 -0.18208235D+00
 -0.13742027D+00  0.46837047D-01  0.29452392D-01  0.46657538D-02  0.14702570D+00
  0.92453706D-01  0.14646220D-01  0.52860963D-01  0.33240392D-01  0.52658366D-02
 -0.73241357D+00 -0.70835852D+00 -0.22076441D+00 -0.14476191D+00  0.19363075D+00
  0.14613601D+00  0.77015182D-01  0.48429213D-01  0.76720010D-02  0.22250040D+00
  0.13991422D+00  0.22164763D-01  0.81428274D-01  0.51204284D-01  0.81116188D-02
 -0.55186676D-01 -0.53374150D-01 -0.16634391D-01 -0.95096153D-02  0.12719879D-01
  0.95998822D-02 -0.13991990D-01 -0.87985389D-02 -0.13938364D-02  0.41621504D-02
  0.26172719D-02  0.41461984D-03 -0.13313440D-01 -0.83718485D-02 -0.13262415D-02
 -0.31134760D-01 -0.30112184D-01 -0.93846526D-02 -0.47758734D-02  0.63881165D-02
  0.48212068D-02 -0.28456876D-02 -0.17894448D-02 -0.28347811D-03 -0.11878782D-01
 -0.74696966D-02 -0.11833254D-02 -0.50824561D-02 -0.31959848D-02 -0.50629768D-03
 -0.40434432D-02 -0.39106422D-02 -0.12187764D-02 -0.60359028D-03  0.80735076D-03
  0.60931967D-03  0.10247228D-02  0.64437321D-03  0.10207954D-03 -0.24556549D-02
 -0.15441817D-02 -0.24462433D-03  0.47511445D-03  0.29876472D-03  0.47329350D-04
 -0.57518149D-02 -0.55629050D-02 -0.17337145D-02 -0.79337649D-03  0.10612051D-02
  0.80090735D-03 -0.11694153D-02 -0.73535970D-03 -0.11649333D-03 -0.12468063D-02
 -0.78402526D-03 -0.12420277D-03  0.39137218D-03  0.24610533D-03  0.38987219D-04
 -0.15285901D-01 -0.14783858D-01 -0.46074829D-02 -0.21125107D-02  0.28256538D-02
  0.21325630D-02 -0.38831097D-02 -0.24418036D-02 -0.38682271D-03  0.23277690D-03
  0.14637636D-03  0.23188474D-04  0.25573494D-02  0.16081299D-02  0.25475480D-03
 -0.13102322D+00 -0.12671996D+00 -0.39493076D-01 -0.17973235D-01  0.24040654D-01
  0.18143840D-01  0.17852494D-01  0.11226128D-01  0.17784072D-02 -0.17480931D+00
 -0.10992479D+00 -0.17413933D-01 -0.27990059D-01 -0.17600900D-01 -0.27882783D-02
  0.63618995D-03  0.61529522D-03  0.19176065D-03  0.56363458D-04  0.54512283D-04
  0.16989098D-04 -0.46465312D-03 -0.44939227D-03 -0.14005594D-03  0.17185548D-03
  0.16621113D-03  0.51800750D-04  0.20768614D-03  0.20086500D-03  0.62600846D-04
  0.91398987D-03  0.88397121D-03  0.27549522D-03  0.45363748D-03  0.43873842D-03
  0.13673560D-03  0.57591744D-02  0.55700227D-02  0.17359328D-02 -0.29356771D-01
 -0.28392591D-01 -0.88487304D-02
MO   11     MO 0.0        OCC NO =    2.0000000  ORB. ENERGY =   -0.847924
  0.79026923D-02  0.76431400D-02  0.23820329D-02  0.16201138D-02 -0.21670331D-02
 -0.16354922D-02  0.16793582D-01  0.10560255D-01  0.16729218D-02  0.86323590D-02
  0.54282590D-02  0.85992742D-03  0.83239036D-02  0.52342940D-02  0.82920011D-03
  0.15741156D+00  0.15224161D+00  0.47447059D-01  0.32300465D-01 -0.43204481D-01