 opt serine m062x
GAUSSIAN             28 MOL ORBITALS    126 PRIMITIVES       14 NUCLEI
  O    1    (CENTRE  1)   3.29861936 -1.83382383  0.16205148  CHARGE =  8.0
  O    2    (CENTRE  2)  -1.49014863 -2.11619218  1.30288356  CHARGE =  8.0
  O    3    (CENTRE  3)  -4.32395398  0.40095386 -0.88841960  CHARGE =  8.0
  N    4    (CENTRE  4)   1.48043449  2.66069886  1.69148150  CHARGE =  7.0
  C    5    (CENTRE  5)   0.30769544  1.61655282 -0.67545956  CHARGE =  6.0
  C    6    (CENTRE  6)   2.37270023 -0.18868278 -1.81677740  CHARGE =  6.0
  C    7    (CENTRE  7)  -2.13201400  0.02388378 -0.18322981  CHARGE =  6.0
  H    8    (CENTRE  8)  -0.19355563  3.14694174 -1.99867233  CHARGE =  1.0
  H    9    (CENTRE  9)   1.58547394 -1.22716001 -3.45654652  CHARGE =  1.0
  H   10    (CENTRE 10)   3.97540748  0.97080837 -2.47590187  CHARGE =  1.0
  H   11    (CENTRE 11)   2.55332609  1.08965813  2.32108261  CHARGE =  1.0
  H   12    (CENTRE 12)   0.02633763  2.85099834  3.03632882  CHARGE =  1.0
  H   13    (CENTRE 13)   1.65027749 -2.66843321  0.73040518  CHARGE =  1.0
  H   14    (CENTRE 14)  -3.12673250 -3.10573115  1.44361070  CHARGE =  1.0
CENTRE ASSIGNMENTS    1  1  1  1  1  1  1  1  1  1  1  1  1  1  1  2  2  2  2  2
CENTRE ASSIGNMENTS    2  2  2  2  2  2  2  2  2  2  3  3  3  3  3  3  3  3  3  3
CENTRE ASSIGNMENTS    3  3  3  3  3  4  4  4  4  4  4  4  4  4  4  4  4  4  4  4
CENTRE ASSIGNMENTS    5  5  5  5  5  5  5  5  5  5  5  5  5  5  5  6  6  6  6  6
CENTRE ASSIGNMENTS    6  6  6  6  6  6  6  6  6  6  7  7  7  7  7  7  7  7  7  7
CENTRE ASSIGNMENTS    7  7  7  7  7  8  8  8  9  9  9 10 10 10 11 11 11 12 12 12
CENTRE ASSIGNMENTS   13 13 13 14 14 14
TYPE ASSIGNMENTS      1  1  1  1  1  1  2  2  2  3  3  3  4  4  4  1  1  1  1  1
TYPE ASSIGNMENTS      1  2  2  2  3  3  3  4  4  4  1  1  1  1  1  1  2  2  2  3
TYPE ASSIGNMENTS      3  3  4  4  4  1  1  1  1  1  1  2  2  2  3  3  3  4  4  4
TYPE ASSIGNMENTS      1  1  1  1  1  1  2  2  2  3  3  3  4  4  4  1  1  1  1  1
TYPE ASSIGNMENTS      1  2  2  2  3  3  3  4  4  4  1  1  1  1  1  1  2  2  2  3
TYPE ASSIGNMENTS      3  3  4  4  4  1  1  1  1  1  1  1  1  1  1  1  1  1  1  1
TYPE ASSIGNMENTS      1  1  1  1  1  1
EXPONENTS  0.1307093D+03 0.2380887D+02 0.6443608D+01 0.5033151D+01 0.1169596D+01
EXPONENTS  0.3803890D+00 0.5033151D+01 0.1169596D+01 0.3803890D+00 0.5033151D+01
EXPONENTS  0.1169596D+01 0.3803890D+00 0.5033151D+01 0.1169596D+01 0.3803890D+00
EXPONENTS  0.1307093D+03 0.2380887D+02 0.6443608D+01 0.5033151D+01 0.1169596D+01
EXPONENTS  0.3803890D+00 0.5033151D+01 0.1169596D+01 0.3803890D+00 0.5033151D+01
EXPONENTS  0.1169596D+01 0.3803890D+00 0.5033151D+01 0.1169596D+01 0.3803890D+00
EXPONENTS  0.1307093D+03 0.2380887D+02 0.6443608D+01 0.5033151D+01 0.1169596D+01
EXPONENTS  0.3803890D+00 0.5033151D+01 0.1169596D+01 0.3803890D+00 0.5033151D+01
EXPONENTS  0.1169596D+01 0.3803890D+00 0.5033151D+01 0.1169596D+01 0.3803890D+00
EXPONENTS  0.9910617D+02 0.1805231D+02 0.4885660D+01 0.3780456D+01 0.8784966D+00
EXPONENTS  0.2857144D+00 0.3780456D+01 0.8784966D+00 0.2857144D+00 0.3780456D+01
EXPONENTS  0.8784966D+00 0.2857144D+00 0.3780456D+01 0.8784966D+00 0.2857144D+00
EXPONENTS  0.7161684D+02 0.1304510D+02 0.3530512D+01 0.2941249D+01 0.6834831D+00
EXPONENTS  0.2222899D+00 0.2941249D+01 0.6834831D+00 0.2222899D+00 0.2941249D+01
EXPONENTS  0.6834831D+00 0.2222899D+00 0.2941249D+01 0.6834831D+00 0.2222899D+00
EXPONENTS  0.7161684D+02 0.1304510D+02 0.3530512D+01 0.2941249D+01 0.6834831D+00
EXPONENTS  0.2222899D+00 0.2941249D+01 0.6834831D+00 0.2222899D+00 0.2941249D+01
EXPONENTS  0.6834831D+00 0.2222899D+00 0.2941249D+01 0.6834831D+00 0.2222899D+00
EXPONENTS  0.7161684D+02 0.1304510D+02 0.3530512D+01 0.2941249D+01 0.6834831D+00
EXPONENTS  0.2222899D+00 0.2941249D+01 0.6834831D+00 0.2222899D+00 0.2941249D+01
EXPONENTS  0.6834831D+00 0.2222899D+00 0.2941249D+01 0.6834831D+00 0.2222899D+00
EXPONENTS  0.3425251D+01 0.6239137D+00 0.1688554D+00 0.3425251D+01 0.6239137D+00
EXPONENTS  0.1688554D+00 0.3425251D+01 0.6239137D+00 0.1688554D+00 0.3425251D+01
EXPONENTS  0.6239137D+00 0.1688554D+00 0.3425251D+01 0.6239137D+00 0.1688554D+00
EXPONENTS  0.3425251D+01 0.6239137D+00 0.1688554D+00 0.3425251D+01 0.6239137D+00
EXPONENTS  0.1688554D+00
MO    1     MO 0.0        OCC NO =    2.0000000  ORB. ENERGY =  -19.453459
  0.53017909D-02  0.51276614D-02  0.15980681D-02 -0.18539995D-03  0.24798741D-03
  0.18715980D-03 -0.75791534D-03 -0.47659751D-03 -0.75501052D-04 -0.47548905D-03
 -0.29900027D-03 -0.47366667D-04  0.30390554D-03  0.19110396D-03  0.30274077D-04
  0.42263820D+01  0.40875727D+01  0.12739179D+01 -0.64051430D-02  0.85673962D-02
  0.64659417D-02 -0.53801126D-02 -0.33831592D-02 -0.53594925D-03  0.15184306D-02
  0.95482991D-03  0.15126110D-03 -0.27755214D-02 -0.17453224D-02 -0.27648838D-03
  0.45317304D-02  0.43828924D-02  0.13659561D-02 -0.67940940D-04  0.90876496D-04
  0.68585847D-04 -0.98440471D-04 -0.61902010D-04 -0.98063183D-05 -0.87877945D-03
 -0.55260010D-03 -0.87541140D-04  0.52871078D-03  0.33246752D-03  0.52668442D-04
 -0.23046060D-04 -0.22289146D-04 -0.69465533D-05 -0.71347398D-05  0.95432909D-05
  0.72024640D-05 -0.16239489D-04 -0.10211826D-04 -0.16177249D-05 -0.21428937D-04
 -0.13475090D-04 -0.21346807D-05  0.20988440D-04  0.13198094D-04  0.20907998D-05
 -0.53656836D-04 -0.51894556D-04 -0.16173266D-04 -0.48358701D-04  0.64683669D-04
  0.48817730D-04 -0.36764661D-04 -0.23118605D-04 -0.36623755D-05 -0.22722389D-03
 -0.14288448D-03 -0.22635302D-04  0.12236610D-03  0.76947090D-04  0.12189712D-04
 -0.19925381D-04 -0.19270961D-04 -0.60059169D-05 -0.73151665D-05  0.97846261D-05
  0.73846033D-05 -0.23673274D-04 -0.14886390D-04 -0.23582542D-05 -0.40839328D-04
 -0.25680865D-04 -0.40682805D-05 -0.55347397D-05 -0.34803928D-05 -0.55135270D-06
  0.14485936D-02  0.14010167D-02  0.43663570D-03  0.70393289D-03 -0.94156711D-03
 -0.71061474D-03 -0.98925805D-03 -0.62207201D-03 -0.98546658D-04  0.30894480D-02
  0.19427278D-02  0.30776073D-03 -0.21756829D-02 -0.13681278D-02 -0.21673443D-03
 -0.16510748D-04 -0.15968477D-04 -0.49766768D-05  0.91169884D-05  0.88175542D-05
  0.27480465D-05  0.40231896D-05  0.38910539D-05  0.12126715D-05 -0.12121035D-04
 -0.11722937D-04 -0.36535275D-05 -0.14147388D-05 -0.13682738D-05 -0.42643118D-06
 -0.52275972D-03 -0.50559044D-03 -0.15757046D-03 -0.16141675D-02 -0.15611525D-02
 -0.48654306D-03
MO    2     MO 0.0        OCC NO =    2.0000000  ORB. ENERGY =  -19.404846
  0.13479553D-03  0.13036837D-03  0.40630127D-04 -0.39996094D-05  0.53498007D-05
  0.40375744D-05 -0.32825407D-06 -0.20641497D-06 -0.32699599D-07 -0.89069527D-05
 -0.56009309D-05 -0.88728155D-06  0.98388100D-06  0.61869078D-06  0.98011014D-07
 -0.48905964D-02 -0.47299719D-02 -0.14741256D-02 -0.71001010D-04  0.94969587D-04
  0.71674964D-04 -0.83814256D-03 -0.52704653D-03 -0.83493026D-04 -0.41398734D-04
 -0.26032635D-04 -0.41240068D-05 -0.16324014D-03 -0.10264978D-03 -0.16261450D-04
  0.42267659D+01  0.40879439D+01  0.12740336D+01 -0.64247065D-02  0.85935640D-02
  0.64856910D-02  0.91109320D-02  0.57291986D-02  0.90760131D-03 -0.16341996D-02
 -0.10276286D-02 -0.16279363D-03  0.29734718D-02  0.18697988D-02  0.29620755D-03
 -0.38170739D-06 -0.36917077D-06 -0.11505441D-06 -0.13347362D-05  0.17853175D-05
  0.13474057D-05  0.31215340D-04  0.19629043D-04  0.31095702D-05 -0.24468956D-04
 -0.15386736D-04 -0.24375175D-05 -0.46084829D-04 -0.28979377D-04 -0.45908202D-05
 -0.52106009D-04 -0.50394664D-04 -0.15705816D-04 -0.14729922D-04  0.19702461D-04
  0.14869741D-04 -0.27225784D-03 -0.17120304D-03 -0.27121437D-04  0.26541638D-03
  0.16690094D-03  0.26439913D-04 -0.23679328D-03 -0.14890197D-03 -0.23588574D-04
  0.33805818D-05  0.32695516D-05  0.10189764D-05 -0.42407568D-06  0.56723548D-06
  0.42810108D-06  0.10936384D-04  0.68770917D-05  0.10894469D-05  0.42237592D-04
  0.26560131D-04  0.42075711D-05  0.15012437D-04  0.94402233D-05  0.14954900D-05
  0.16282025D-02  0.15747266D-02  0.49077349D-03  0.11956203D-02 -0.15992387D-02
 -0.12069693D-02  0.55788585D-02  0.35081359D-02  0.55574767D-03 -0.90517467D-03
 -0.56919813D-03 -0.90170546D-04  0.17587742D-02  0.11059644D-02  0.17520335D-03
 -0.39682553D-04 -0.38379237D-04 -0.11961132D-04  0.14234309D-04  0.13766804D-04
  0.42905114D-05 -0.28533323D-05 -0.27596188D-05 -0.86005265D-06 -0.46886224D-05
 -0.45346315D-05 -0.14132466D-05  0.16730469D-04  0.16180981D-04  0.50429051D-05
 -0.12362575D-04 -0.11956544D-04 -0.37263326D-05 -0.37871431D-04 -0.36627599D-04
 -0.11415223D-04
MO    3     MO 0.0        OCC NO =    2.0000000  ORB. ENERGY =  -19.361387
  0.42265518D+01  0.40877369D+01  0.12739690D+01 -0.63267972D-02  0.84626024D-02
  0.63868523D-02 -0.64399176D-02 -0.40495930D-02 -0.64152357D-03  0.98240603D-03
  0.61776328D-03  0.97864082D-04 -0.21872353D-02 -0.13753923D-02 -0.21788524D-03
 -0.61169871D-02 -0.59160836D-02 -0.18437848D-02 -0.13523732D-03  0.18089084D-03
  0.13652101D-03  0.10923828D-02  0.68691963D-03  0.10881961D-03 -0.26611583D-03
 -0.16734078D-03 -0.26509590D-04 -0.12938387D-03 -0.81360051D-04 -0.12888799D-04
 -0.15251073D-03 -0.14750173D-03 -0.45969848D-04 -0.48206370D-05  0.64479914D-05
  0.48663953D-05  0.21075523D-04  0.13252854D-04  0.20994748D-05  0.23280096D-04
  0.14639149D-04  0.23190872D-05  0.18132930D-04  0.11402473D-04  0.18063433D-05
 -0.12535825D-03 -0.12124104D-03 -0.37785536D-04 -0.73911435D-04  0.98862516D-04
  0.74613016D-04  0.25087295D-03  0.15775564D-03  0.24991145D-04 -0.27533882D-03
 -0.17314044D-03 -0.27428355D-04  0.13566877D-03  0.85312165D-04  0.13514880D-04
 -0.62899298D-04 -0.60833463D-04 -0.18959133D-04 -0.49888203D-04  0.66729501D-04
  0.50361750D-04  0.15564223D-03  0.97872011D-04  0.15504571D-04 -0.23295588D-03
 -0.14648891D-03 -0.23206304D-04  0.14324421D-03  0.90075804D-04  0.14269521D-04
  0.15072307D-02  0.14577279D-02  0.45431012D-03  0.69955441D-03 -0.93571054D-03
 -0.70619470D-03 -0.13631061D-02 -0.85715769D-03 -0.13578818D-03  0.21365500D-02
  0.13435200D-02  0.21283613D-03 -0.26367240D-02 -0.16580428D-02 -0.26266183D-03
 -0.64124518D-04 -0.62018442D-04 -0.19328440D-04 -0.18496327D-04  0.24740331D-04
  0.18671897D-04  0.10380187D-03  0.65273403D-04  0.10340404D-04 -0.92517919D-04
 -0.58177750D-04 -0.92163331D-05  0.26184292D-05  0.16465385D-05  0.26083937D-06
 -0.51352456D-05 -0.49665860D-05 -0.15478679D-05  0.80168218D-04  0.77535211D-04
  0.24164339D-04  0.95615708D-04  0.92475350D-04  0.28820527D-04 -0.25388254D-03
 -0.24554414D-03 -0.76525383D-04  0.10135094D-04  0.98022215D-05  0.30549243D-05
 -0.16770751D-02 -0.16219940D-02 -0.50550468D-03  0.37499373D-04  0.36267761D-04
  0.11303077D-04
MO    4     MO 0.0        OCC NO =    2.0000000  ORB. ENERGY =  -14.538932
 -0.25368411D-03 -0.24535222D-03 -0.76465571D-04 -0.69496615D-04  0.92957337D-04
  0.70156289D-04  0.22906161D-04  0.14404008D-04  0.22818369D-05  0.43937373D-03
  0.27628999D-03  0.43768977D-04  0.41954455D-03  0.26382087D-03  0.41793658D-04
 -0.56353650D-04 -0.54502797D-04 -0.16986141D-04 -0.95284017D-05  0.12745007D-04
  0.96188469D-05  0.10920801D-03  0.68672930D-04  0.10878946D-04  0.84229169D-04
  0.52965562D-04  0.83906348D-05  0.38242181D-04  0.24047710D-04  0.38095612D-05
 -0.99328475D-07 -0.96066176D-07 -0.29939631D-07 -0.70625206D-06  0.94466918D-06
  0.71295592D-06  0.97084575D-05  0.61049386D-05  0.96712485D-06 -0.39560112D-04
 -0.24876460D-04 -0.39408492D-05 -0.19645863D-04 -0.12353846D-04 -0.19570568D-05
  0.34310331D+01  0.33183459D+01  0.10341835D+01 -0.62964031D-02  0.84219479D-02
  0.63561697D-02 -0.32117043D-02 -0.20196059D-02 -0.31993950D-03 -0.52308756D-02
 -0.32893150D-02 -0.52108275D-03  0.10167732D-02  0.63937429D-03  0.10128763D-03
  0.14740342D-02  0.14256217D-02  0.44430402D-03  0.86702019D-03 -0.11597095D-02
 -0.87525010D-03 -0.16468627D-02 -0.10355914D-02 -0.16405508D-03 -0.14140060D-02
 -0.88916490D-03 -0.14085866D-03 -0.34890762D-02 -0.21940247D-02 -0.34757038D-03
 -0.33259725D-04 -0.32167358D-04 -0.10025160D-04 -0.64951773D-04  0.86878243D-04
  0.65568306D-04 -0.75101204D-04 -0.47225652D-04 -0.74813368D-05  0.10426934D-03
  0.65567360D-04  0.10386971D-04  0.17128795D-03  0.10771046D-03  0.17063146D-04
 -0.52703437D-04 -0.50972470D-04 -0.15885892D-04 -0.53418867D-04  0.71452050D-04
  0.53925928D-04  0.15168084D-03  0.95380984D-04  0.15109950D-04  0.18279625D-03
  0.11494719D-03  0.18209566D-04  0.22939943D-03  0.14425252D-03  0.22852023D-04
  0.53318396D-04  0.51567231D-04  0.16071254D-04 -0.25446581D-04 -0.24610825D-04
 -0.76701192D-05 -0.83419615D-05 -0.80679820D-05 -0.25144376D-05 -0.19651841D-02
 -0.19006405D-02 -0.59234664D-03 -0.19796726D-02 -0.19146531D-02 -0.59671375D-03
  0.62204942D-04  0.60161912D-04  0.18749840D-04  0.54590629D-05  0.52797679D-05
  0.16454731D-05
MO    5     MO 0.0        OCC NO =    2.0000000  ORB. ENERGY =  -10.499580
 -0.13645656D-03 -0.13197485D-03 -0.41130795D-04 -0.53658019D-04  0.71771935D-04
  0.54167350D-04 -0.21431254D-03 -0.13476548D-03 -0.21349116D-04 -0.52223797D-04
 -0.32839725D-04 -0.52023642D-05  0.35217449D-04  0.22145677D-04  0.35082474D-05
  0.22086377D-02  0.21360982D-02  0.66572852D-03  0.11591850D-02 -0.15505036D-02
 -0.11701882D-02  0.10633431D-02  0.66865868D-03  0.10592677D-03 -0.47261122D-02
 -0.29719062D-02 -0.47079987D-03  0.31031022D-02  0.19513139D-02  0.30912091D-03
  0.16276800D-02  0.15742213D-02  0.49061600D-03  0.16160610D-02 -0.21616121D-02
 -0.16314009D-02 -0.39875521D-02 -0.25074798D-02 -0.39722692D-03  0.78543293D-03
  0.49390130D-03  0.78242265D-04 -0.13499383D-02 -0.84887740D-03 -0.13447644D-03
 -0.93970249D-04 -0.90883934D-04 -0.28324553D-04 -0.84134664D-04  0.11253691D-03
  0.84933285D-04 -0.21742167D-03 -0.13672058D-03 -0.21658837D-04  0.25385427D-04
  0.15963038D-04  0.25288133D-05  0.11446892D-03  0.71981127D-04  0.11403020D-04
 -0.12348148D-01 -0.11942591D-01 -0.37219840D-02  0.95298849D-03 -0.12746991D-02
 -0.96203443D-03  0.33443728D-02  0.21030314D-02  0.33315550D-03  0.20220352D-02
  0.12715100D-02  0.20142855D-03 -0.64677273D-03 -0.40670805D-03 -0.64429388D-04
 -0.14273316D-02 -0.13804530D-02 -0.43022689D-03 -0.19523288D-04  0.26113975D-04
  0.19708606D-04  0.19067501D-03  0.11990157D-03  0.18994423D-04  0.14570670D-03
  0.91624281D-04  0.14514826D-04 -0.12714432D-03 -0.79951763D-04 -0.12665703D-04
  0.26862319D+01  0.25980066D+01  0.80968517D+00 -0.55024716D-02  0.73600003D-02
  0.55547020D-02 -0.62981104D-03 -0.39604208D-03 -0.62739720D-04 -0.15673720D-03
 -0.98560556D-04 -0.15613648D-04 -0.27534957D-04 -0.17314720D-04 -0.27429426D-05
 -0.14758591D-04 -0.14273867D-04 -0.44485408D-05 -0.92314304D-04 -0.89282376D-04
 -0.27825417D-04 -0.47786969D-04 -0.46217476D-04 -0.14403968D-04 -0.95707098D-05
 -0.92563738D-05 -0.28848074D-05 -0.19955364D-03 -0.19299960D-03 -0.60149544D-04
 -0.11515214D-03 -0.11137014D-03 -0.34709208D-04 -0.40312169D-03 -0.38988175D-03
 -0.12150911D-03
MO    6     MO 0.0        OCC NO =    2.0000000  ORB. ENERGY =  -10.428700
  0.18647132D-02  0.18034695D-02  0.56206265D-03  0.93946479D-03 -0.12566100D-02
 -0.94838235D-03  0.11616929D-02  0.73050365D-03  0.11572405D-03 -0.28790608D-02
 -0.18104307D-02 -0.28680264D-03  0.34935701D-02  0.21968506D-02  0.34801805D-03
 -0.19192138D-04 -0.18561800D-04 -0.57849023D-05  0.16321164D-04 -0.21830876D-04
 -0.16476088D-04  0.72774673D-04  0.45762668D-04  0.72495754D-05 -0.49893464D-04
 -0.31374349D-04 -0.49702240D-05  0.14231486D-03  0.89491404D-04  0.14176942D-04
  0.72510708D-04  0.70129200D-04  0.21856209D-04  0.22350147D-04 -0.29895127D-04
 -0.22562298D-04 -0.17841658D-03 -0.11219313D-03 -0.17773277D-04 -0.36221470D-03
 -0.22777032D-03 -0.36082646D-04  0.12066429D-03  0.75876943D-04  0.12020183D-04
 -0.14724153D-02 -0.14240559D-02 -0.44381603D-03 -0.75228319D-03  0.10062395D-02
  0.75942399D-03 -0.15055816D-02 -0.94675010D-03 -0.14998112D-03 -0.11741484D-02
 -0.73833605D-03 -0.11696483D-03 -0.27621664D-02 -0.17369243D-02 -0.27515800D-03
 -0.17388168D+01 -0.16817079D+01 -0.52411491D+00  0.48468147D-02 -0.64830063D-02
 -0.48928215D-02 -0.21290101D-02 -0.13387787D-02 -0.21208503D-03  0.20494338D-02
  0.12887390D-02  0.20415791D-03  0.13648432D-02  0.85825004D-03  0.13596123D-03
  0.20429479D+01  0.19758502D+01  0.61578621D+00 -0.54234320D-02  0.72542784D-02
  0.54749121D-02 -0.19197195D-02 -0.12071711D-02 -0.19123619D-03  0.20608602D-02
  0.12959242D-02  0.20529617D-03  0.68306300D-03  0.42952835D-03  0.68044507D-04
 -0.89982333D-02 -0.87026995D-02 -0.27122513D-02 -0.65631401D-03  0.87787300D-03
  0.66254385D-03  0.23106067D-02  0.14529715D-02  0.23017510D-03  0.16564516D-02
  0.10416212D-02  0.16501030D-03 -0.41321254D-03 -0.25983913D-03 -0.41162884D-04
  0.14871467D-02  0.14383035D-02  0.44825639D-03 -0.17081012D-02 -0.16520011D-02
 -0.51485658D-03 -0.17258240D-02 -0.16691419D-02 -0.52019862D-03 -0.50399612D-04
 -0.48744311D-04 -0.15191473D-04  0.52368688D-04  0.50648715D-04  0.15784992D-04
 -0.20627749D-03 -0.19950260D-03 -0.62176248D-04  0.23205838D-04  0.22443677D-04
  0.69947137D-05
MO    7     MO 0.0        OCC NO =    2.0000000  ORB. ENERGY =  -10.427931
  0.14743231D-02  0.14259011D-02  0.44439109D-03  0.70029593D-03 -0.93670238D-03
 -0.70694326D-03  0.77402940D-03  0.48673046D-03  0.77106282D-04 -0.23490446D-02
 -0.14771423D-02 -0.23400415D-03  0.28296135D-02  0.17793369D-02  0.28187686D-03
 -0.59708157D-04 -0.57747130D-04 -0.17997258D-04 -0.62862522D-04  0.84083701D-04
  0.63459223D-04 -0.56504584D-04 -0.35531599D-04 -0.56288022D-05  0.53160196D-04
  0.33428558D-04  0.52956451D-05 -0.47208017D-04 -0.29685668D-04 -0.47027086D-05
 -0.68288421D-04 -0.66045587D-04 -0.20583525D-04 -0.97745374D-05  0.13074233D-04
  0.98673190D-05  0.17276212D-03  0.10863746D-03  0.17209998D-04  0.34912221D-03
  0.21953741D-03  0.34778415D-04 -0.21707439D-03 -0.13650220D-03 -0.21624242D-04
  0.16991428D-02  0.16433369D-02  0.51215634D-03  0.76059599D-03 -0.10173586D-02
 -0.76781569D-03  0.15767754D-02  0.99151867D-03  0.15707322D-03  0.12224576D-02
  0.76871414D-03  0.12177724D-03  0.33922396D-02  0.21331313D-02  0.33792383D-03
  0.20450613D+01  0.19778942D+01  0.61642324D+00 -0.41581055D-02  0.55618020D-02
  0.41975750D-02 -0.20556209D-02 -0.12926296D-02 -0.20477424D-03  0.15466409D-02
  0.97256927D-03  0.15407131D-03  0.84545351D-03  0.53164385D-03  0.84221318D-04
  0.17416898D+01  0.16844865D+01  0.52498088D+00 -0.32937047D-02  0.44055961D-02
  0.33249691D-02  0.22188346D-02  0.13952627D-02  0.22103306D-03 -0.16376951D-02
 -0.10298266D-02 -0.16314184D-03 -0.15662159D-02 -0.98487856D-03 -0.15602131D-03
  0.13141749D-01  0.12710127D-01  0.39611916D-02  0.75284007D-03 -0.10069844D-02
 -0.75998616D-03 -0.28168712D-02 -0.17713242D-02 -0.28060751D-03 -0.17321939D-02
 -0.10892500D-02 -0.17255550D-03  0.49027770D-03  0.30829977D-03  0.48839864D-04
 -0.16929081D-02 -0.16373071D-02 -0.51027709D-03 -0.14141710D-02 -0.13677246D-02
 -0.42626002D-03 -0.14387574D-02 -0.13915035D-02 -0.43367088D-03 -0.22147082D-03
 -0.21419693D-03 -0.66755828D-04 -0.10449657D-03 -0.10106453D-03 -0.31497400D-04
 -0.27663104D-03 -0.26754550D-03 -0.83382246D-04 -0.27304824D-04 -0.26408037D-04
 -0.82302315D-05
MO    8     MO 0.0        OCC NO =    2.0000000  ORB. ENERGY =   -1.167497
 -0.73004126D-01 -0.70606412D-01 -0.22004935D-01 -0.13794641D-01  0.18451447D-01
  0.13925582D-01 -0.25020105D-01 -0.15733313D-01 -0.24924212D-02  0.46828363D-02
  0.29446931D-02  0.46648886D-03 -0.48921801D-02 -0.30763341D-02 -0.48734301D-03
 -0.69110465D+00 -0.66840633D+00 -0.20831306D+00 -0.13810591D+00  0.18472782D+00
  0.13941684D+00 -0.14877714D+00 -0.93555057D-01 -0.14820693D-01  0.72561362D-01
  0.45628532D-01  0.72283260D-02 -0.95964827D-01 -0.60345258D-01 -0.95597028D-02
 -0.55210036D+00 -0.53396743D+00 -0.16641432D+00 -0.10624874D+00  0.14211627D+00
  0.10725727D+00  0.20016773D+00  0.12587084D+00  0.19940056D-01 -0.52897302D-01
 -0.33263243D-01 -0.52694566D-02  0.75633541D-01  0.47560400D-01  0.75343664D-02
 -0.26412623D-01 -0.25545139D-01 -0.79613042D-02 -0.43852364D-02  0.58656079D-02
  0.44268618D-02 -0.60992964D-02 -0.38354013D-02 -0.60759200D-03 -0.85525282D-02
 -0.53780592D-02 -0.85197494D-03 -0.29627730D-02 -0.18630712D-02 -0.29514178D-03
 -0.56541687D-01 -0.54684658D-01 -0.17042819D-01 -0.82837543D-02  0.11080191D-01
  0.83623851D-02 -0.14485921D-01 -0.91091360D-02 -0.14430402D-02 -0.14906246D-01
 -0.93734476D-02 -0.14849116D-02  0.64776988D-02  0.40733508D-02  0.64528720D-03
 -0.27579283D-01 -0.26673482D-01 -0.83129594D-02 -0.38676093D-02  0.51732399D-02
  0.39043214D-02 -0.37478598D-02 -0.23567548D-02 -0.37334956D-03 -0.30279176D-02
 -0.19040359D-02 -0.30163127D-03  0.70178343D-02  0.44130025D-02  0.69909374D-03
 -0.34201835D+00 -0.33078526D+00 -0.10309132D+00 -0.48124106D-01  0.64369880D-01
  0.48580908D-01 -0.62824301D-01 -0.39505606D-01 -0.62583517D-02 -0.43652413D-01
 -0.27449809D-01 -0.43485109D-02  0.13298261D-01  0.83623035D-02  0.13247294D-02
  0.17454911D-02  0.16881630D-02  0.52612666D-03  0.10236913D-02  0.99006970D-03
  0.30856148D-03  0.69041925D-03  0.66774344D-03  0.20810646D-03  0.14639636D-02
  0.14158818D-02  0.44126853D-03  0.12686627D-02  0.12269953D-02  0.38240084D-03
  0.74852453D-02  0.72394034D-02  0.22562058D-02  0.26261424D-01  0.25398906D-01
  0.79157297D-02
MO    9     MO 0.0        OCC NO =    2.0000000  ORB. ENERGY =   -1.083288
  0.33077545D+00  0.31991161D+00  0.99702476D-01  0.65778991D-01 -0.87984714D-01
 -0.66403377D-01  0.89779929D-01  0.56456028D-01  0.89435834D-02 -0.17234402D-01
 -0.10837455D-01 -0.17168349D-02  0.26283228D-01  0.16527599D-01  0.26182494D-02
  0.59355832D+00  0.57406377D+00  0.17891060D+00  0.12203844D+00 -0.16323627D+00
 -0.12319685D+00  0.90210061D-01  0.56726507D-01  0.89864318D-02 -0.64327767D-02
 -0.40451026D-02 -0.64081221D-03  0.44201870D-01  0.27795322D-01  0.44032460D-02
 -0.70479522D+00 -0.68164725D+00 -0.21243967D+00 -0.13966969D+00  0.18681949D+00
  0.14099546D+00  0.21663722D+00  0.13622730D+00  0.21580693D-01 -0.32182848D-01
 -0.20237438D-01 -0.32059502D-02  0.66724593D-01  0.41958214D-01  0.66468861D-02
  0.33676105D-01  0.32570063D-01  0.10150666D-01  0.57738185D-02 -0.77229487D-02
 -0.58286246D-02  0.31591300D-02  0.19865457D-02  0.31470222D-03  0.12327363D-01
  0.77517767D-02  0.12280117D-02  0.20420769D-02  0.12841127D-02  0.20342503D-03
  0.21462762D-01  0.20757849D-01  0.64693147D-02  0.23684449D-02 -0.31679864D-02
 -0.23909266D-02 -0.14504604D-01 -0.91208839D-02 -0.14449013D-02  0.66264697D-02
  0.41669020D-02  0.66010728D-03 -0.42835803D-02 -0.26936302D-02 -0.42671629D-03
  0.87299728D-01  0.84432497D-01  0.26313921D-01  0.13170096D-01 -0.17616068D-01
 -0.13295109D-01 -0.44439386D-02 -0.27944678D-02 -0.44269066D-03  0.18780476D-01
  0.11809667D-01  0.18708497D-02 -0.25704705D-01 -0.16163808D-01 -0.25606188D-02
 -0.12978982D+00 -0.12552706D+00 -0.39121303D-01 -0.17265631D-01  0.23094176D-01
  0.17429519D-01 -0.13413244D+00 -0.84346079D-01 -0.13361836D-01  0.68126425D-01
  0.42839724D-01  0.67865320D-02 -0.70398704D-01 -0.44268595D-01 -0.70128891D-02
  0.11798169D-03  0.11410675D-03  0.35562091D-04 -0.27763409D-02 -0.26851560D-02
 -0.83684585D-03 -0.27021401D-02 -0.26133922D-02 -0.81448021D-03 -0.35104480D-02
 -0.33951525D-02 -0.10581207D-02 -0.11719611D-02 -0.11334697D-02 -0.35325300D-03
 -0.19262710D-01 -0.18630055D-01 -0.58061744D-02 -0.24751329D-01 -0.23938408D-01
 -0.74605561D-02
MO   10     MO 0.0        OCC NO =    2.0000000  ORB. ENERGY =   -1.060408
 -0.84222731D+00 -0.81456558D+00 -0.25386451D+00 -0.17005113D+00  0.22745712D+00
  0.17166528D+00 -0.20727119D+00 -0.13033769D+00 -0.20647680D-01  0.47745522D-01
  0.30023666D-01  0.47562531D-02 -0.75798434D-01 -0.47664089D-01 -0.75507926D-02
  0.33919879D+00  0.32805830D+00  0.10224144D+00  0.70667551D-01 -0.94523559D-01
 -0.71338340D-01  0.91736605D-01  0.57686439D-01  0.91385011D-02 -0.46020008D-02
 -0.28938616D-02 -0.45843630D-03  0.22727356D-01  0.14291571D-01  0.22640250D-02
 -0.21638888D+00 -0.20928190D+00 -0.65224028D-01 -0.43446842D-01  0.58113661D-01
  0.43859247D-01  0.64919548D-01  0.40823154D-01  0.64670734D-02 -0.37061258D-02
 -0.23305114D-02 -0.36919216D-03  0.15617756D-01  0.98208638D-02  0.15557898D-02
 -0.80238792D-01 -0.77603466D-01 -0.24185611D-01 -0.13887849D-01  0.18576119D-01
  0.14019674D-01 -0.64549011D-02 -0.40590150D-02 -0.64301618D-03 -0.25304100D-01
 -0.15911897D-01 -0.25207118D-02 -0.73002969D-02 -0.45906226D-02 -0.72723175D-03
 -0.79439727D-01 -0.76830645D-01 -0.23944756D-01 -0.11504161D-01  0.15387745D-01
  0.11613361D-01  0.14673268D-01  0.92269445D-02  0.14617030D-02 -0.14146388D-01
 -0.88956283D-02 -0.14092170D-02  0.34593161D-02  0.21753108D-02  0.34460578D-03
 -0.22539697D+00 -0.21799413D+00 -0.67939250D-01 -0.34570277D-01  0.46240539D-01
  0.34898424D-01  0.17420832D-01  0.10954686D-01  0.17354064D-02 -0.47125100D-01
 -0.29633528D-01 -0.46944487D-02  0.64162858D-01  0.40347327D-01  0.63916944D-02
 -0.26774552D-01 -0.25895181D-01 -0.80703969D-02 -0.30648307D-02  0.40994586D-02
  0.30939226D-02 -0.34105536D-01 -0.21446477D-01 -0.33974822D-02  0.40312902D-01
  0.25349834D-01  0.40158397D-02 -0.33986647D-01 -0.21371716D-01 -0.33856388D-02
  0.27631347D-02  0.26723836D-02  0.83286525D-03  0.74677624D-02  0.72224947D-02
  0.22509361D-02  0.76165523D-02  0.73663978D-02  0.22957844D-02  0.79430334D-02
  0.76821561D-02  0.23941925D-02  0.25337250D-02  0.24505085D-02  0.76371647D-03
  0.34153579D-01  0.33031855D-01  0.10294586D-01 -0.16931499D-01 -0.16375409D-01
 -0.51034996D-02
MO   11     MO 0.0        OCC NO =    2.0000000  ORB. ENERGY =   -0.934137
  0.24100743D+00  0.23309189D+00  0.72644562D-01  0.51059158D-01 -0.68295748D-01
 -0.51543820D-01  0.46940489D-01  0.29517439D-01  0.46760583D-02  0.29395146D-01
  0.18484457D-01  0.29282485D-02  0.16383329D-01  0.10302277D-01  0.16320538D-02
  0.70068429D-01  0.67767134D-01  0.21120056D-01  0.15126921D-01 -0.20233478D-01
 -0.15270508D-01  0.34302113D-01  0.21570089D-01  0.34170646D-02  0.37909306D-01
  0.23838389D-01  0.37764013D-02 -0.16414610D-02 -0.10321947D-02 -0.16351699D-03
  0.76215564D-01  0.73712375D-01  0.22972928D-01  0.15617106D-01 -0.20889141D-01
 -0.15765347D-01 -0.56232788D-02 -0.35360686D-02 -0.56017268D-03  0.16459260D-01
  0.10350024D-01  0.16396177D-02 -0.73567774D-02 -0.46261391D-02 -0.73285815D-03
 -0.64237247D+00 -0.62127469D+00 -0.19362418D+00 -0.11986815D+00  0.16033334D+00
  0.12100596D+00 -0.96632057D-01 -0.60764830D-01 -0.96261701D-02 -0.14450495D+00
 -0.90868587D-01 -0.14395111D-01 -0.44765125D-02 -0.28149512D-02 -0.44593556D-03
 -0.31822626D+00 -0.30777458D+00 -0.95919895D-01 -0.49620342D-01  0.66371216D-01
  0.50091347D-01  0.23669586D-01  0.14884071D-01  0.23578869D-02  0.13724834D-01
  0.86305440D-02  0.13672232D-02  0.68231667D-01  0.42905903D-01  0.67970159D-02
 -0.47774258D-01 -0.46205183D-01 -0.14400137D-01 -0.69325718D-02  0.92728749D-02
  0.69983770D-02 -0.30764832D-01 -0.19345752D-01 -0.30646921D-02  0.44736835D-01
  0.28131722D-01  0.44565374D-02  0.26573543D-03  0.16710157D-03  0.26471696D-04
 -0.57301675D-01 -0.55419685D-01 -0.17271895D-01 -0.94611781D-02  0.12655090D-01
  0.95509852D-02  0.55371664D-01  0.34819188D-01  0.55159444D-02  0.30111484D-01
  0.18934909D-01  0.29996078D-02  0.29476708D-02  0.18535745D-02  0.29363734D-03
  0.15154771D-01  0.14657035D-01  0.45679576D-02  0.19613757D-02  0.18969572D-02
  0.59119870D-03  0.31910917D-02  0.30862850D-02  0.96186021D-03  0.32599399D-01
  0.31528720D-01  0.98261248D-02  0.35611248D-01  0.34441649D-01  0.10733957D-01
 -0.13763045D-01 -0.13311018D-01 -0.41484628D-02 -0.69060473D-02 -0.66792283D-02
 -0.20816237D-02
MO   12     MO 0.0        OCC NO =    2.0000000  ORB. ENERGY =   -0.777892
  0.23196253D+00  0.22434406D+00  0.69918245D-01  0.52740213D-01 -0.70544296D-01
 -0.53240833D-01  0.28882900D-01  0.18162343D-01  0.28772202D-02  0.82780019D-01
  0.52054297D-01  0.82462752D-02 -0.96546765D-01 -0.60711197D-01 -0.96176736D-02
  0.72591218D-01  0.70207066D-01  0.21880476D-01  0.16706670D-01 -0.22346520D-01
 -0.16865252D-01  0.65718202D-01  0.41325369D-01  0.65466327D-02  0.10918454D+00
  0.68658169D-01  0.10876607D-01 -0.67102706D-01 -0.42195982D-01 -0.66845525D-02
  0.13616605D+00  0.13169388D+00  0.41043229D-01  0.30201125D-01 -0.40396445D-01
 -0.30487799D-01  0.35033746D-01  0.22030160D-01  0.34899474D-02  0.27008252D-01
  0.16983514D-01  0.26904739D-02 -0.25389097D-01 -0.15965345D-01 -0.25291789D-02
  0.34881653D+00  0.33736016D+00  0.10514043D+00  0.69978418D-01 -0.93601787D-01
 -0.70642665D-01  0.23903529D-01  0.15031181D-01  0.23811916D-02  0.55124763D-01
  0.34663930D-01  0.54913489D-02 -0.11811564D+00 -0.74274286D-01 -0.11766295D-01
 -0.34663404D+00 -0.33524936D+00 -0.10448258D+00 -0.60186070D-01  0.80503731D-01
  0.60757367D-01 -0.22449909D-01 -0.14117105D-01 -0.22363866D-02 -0.72389798D-01
 -0.45520647D-01 -0.72112353D-02 -0.93858327D-01 -0.59020634D-01 -0.93498601D-02
 -0.34044859D+00 -0.32926705D+00 -0.10261816D+00 -0.58683028D-01  0.78493291D-01
  0.59240058D-01 -0.65324548D-01 -0.41077829D-01 -0.65074182D-02  0.53519636D-01
  0.33654583D-01  0.53314514D-02 -0.32533467D-01 -0.20457917D-01 -0.32408777D-02
 -0.16467348D+00 -0.15926503D+00 -0.49635952D-01 -0.29897218D-01  0.39989945D-01
  0.30181008D-01  0.11485849D+00  0.72226103D-01  0.11441828D-01  0.31108675D-01
  0.19561969D-01  0.30989446D-02 -0.22744545D-01 -0.14302380D-01 -0.22657373D-02
  0.30459440D-01  0.29459044D-01  0.91810972D-02  0.31697255D-01  0.30656205D-01
  0.95542001D-02  0.26165753D-01  0.25306377D-01  0.78868925D-02 -0.30678417D-01
 -0.29670830D-01 -0.92471016D-02 -0.32931519D-01 -0.31849932D-01 -0.99262325D-02
 -0.20424833D-01 -0.19754010D-01 -0.61564619D-02 -0.16331036D-01 -0.15794667D-01
 -0.49225078D-02
MO   13     MO 0.0        OCC NO =    2.0000000  ORB. ENERGY =   -0.687211
  0.17070069D+00  0.16509428D+00  0.51452675D-01  0.40433569D-01 -0.54083165D-01
 -0.40817371D-01  0.99528319D-01  0.62586078D-01  0.99146862D-02  0.17127070D+00
  0.10769961D+00  0.17061428D-01 -0.18405075D+00 -0.11573605D+00 -0.18334535D-01