 opt serine pbe0
GAUSSIAN             42 MOL ORBITALS    126 PRIMITIVES       14 NUCLEI
  O    1    (CENTRE  1)   3.60395544 -1.87358719  0.63813805  CHARGE =  8.0
  O    2    (CENTRE  2)  -1.50315386 -3.02110942 -1.19213134  CHARGE =  8.0
  O    3    (CENTRE  3)  -3.39940609 -0.22147723  1.61267838  CHARGE =  8.0
  N    4    (CENTRE  4)  -0.45706924  3.90601218 -0.53745946  CHARGE =  7.0
  C    5    (CENTRE  5)   0.31593720  1.21168860 -0.91285427  CHARGE =  6.0
  C    6    (CENTRE  6)   2.83978685  0.74300266  0.55986922  CHARGE =  6.0
  C    7    (CENTRE  7)  -1.74417504 -0.68084321  0.01563719  CHARGE =  6.0
  H    8    (CENTRE  8)   0.63988585  0.88323148 -2.94284256  CHARGE =  1.0
  H    9    (CENTRE  9)   4.29510684  1.99274728 -0.27482107  CHARGE =  1.0
  H   10    (CENTRE 10)   2.56675369  1.33525518  2.53918621  CHARGE =  1.0
  H   11    (CENTRE 11)  -1.25970724  3.93306375  1.28018721  CHARGE =  1.0
  H   12    (CENTRE 12)  -2.04709295  4.15681550 -1.69855966  CHARGE =  1.0
  H   13    (CENTRE 13)   3.80442190 -2.29121894 -1.21614183  CHARGE =  1.0
  H   14    (CENTRE 14)  -2.88034140 -4.06567706 -0.37018565  CHARGE =  1.0
CENTRE ASSIGNMENTS    1  1  1  1  1  1  1  1  1  1  1  1  1  1  1  2  2  2  2  2
CENTRE ASSIGNMENTS    2  2  2  2  2  2  2  2  2  2  3  3  3  3  3  3  3  3  3  3
CENTRE ASSIGNMENTS    3  3  3  3  3  4  4  4  4  4  4  4  4  4  4  4  4  4  4  4
CENTRE ASSIGNMENTS    5  5  5  5  5  5  5  5  5  5  5  5  5  5  5  6  6  6  6  6
CENTRE ASSIGNMENTS    6  6  6  6  6  6  6  6  6  6  7  7  7  7  7  7  7  7  7  7
CENTRE ASSIGNMENTS    7  7  7  7  7  8  8  8  9  9  9 10 10 10 11 11 11 12 12 12
CENTRE ASSIGNMENTS   13 13 13 14 14 14
TYPE ASSIGNMENTS      1  1  1  1  1  1  2  2  2  3  3  3  4  4  4  1  1  1  1  1
TYPE ASSIGNMENTS      1  2  2  2  3  3  3  4  4  4  1  1  1  1  1  1  2  2  2  3
TYPE ASSIGNMENTS      3  3  4  4  4  1  1  1  1  1  1  2  2  2  3  3  3  4  4  4
TYPE ASSIGNMENTS      1  1  1  1  1  1  2  2  2  3  3  3  4  4  4  1  1  1  1  1
TYPE ASSIGNMENTS      1  2  2  2  3  3  3  4  4  4  1  1  1  1  1  1  2  2  2  3
TYPE ASSIGNMENTS      3  3  4  4  4  1  1  1  1  1  1  1  1  1  1  1  1  1  1  1
TYPE ASSIGNMENTS      1  1  1  1  1  1
EXPONENTS  0.1307093D+03 0.2380887D+02 0.6443608D+01 0.5033151D+01 0.1169596D+01
EXPONENTS  0.3803890D+00 0.5033151D+01 0.1169596D+01 0.3803890D+00 0.5033151D+01
EXPONENTS  0.1169596D+01 0.3803890D+00 0.5033151D+01 0.1169596D+01 0.3803890D+00
EXPONENTS  0.1307093D+03 0.2380887D+02 0.6443608D+01 0.5033151D+01 0.1169596D+01
EXPONENTS  0.3803890D+00 0.5033151D+01 0.1169596D+01 0.3803890D+00 0.5033151D+01
EXPONENTS  0.1169596D+01 0.3803890D+00 0.5033151D+01 0.1169596D+01 0.3803890D+00
EXPONENTS  0.1307093D+03 0.2380887D+02 0.6443608D+01 0.5033151D+01 0.1169596D+01
EXPONENTS  0.3803890D+00 0.5033151D+01 0.1169596D+01 0.3803890D+00 0.5033151D+01
EXPONENTS  0.1169596D+01 0.3803890D+00 0.5033151D+01 0.1169596D+01 0.3803890D+00
EXPONENTS  0.9910617D+02 0.1805231D+02 0.4885660D+01 0.3780456D+01 0.8784966D+00
EXPONENTS  0.2857144D+00 0.3780456D+01 0.8784966D+00 0.2857144D+00 0.3780456D+01
EXPONENTS  0.8784966D+00 0.2857144D+00 0.3780456D+01 0.8784966D+00 0.2857144D+00
EXPONENTS  0.7161684D+02 0.1304510D+02 0.3530512D+01 0.2941249D+01 0.6834831D+00
EXPONENTS  0.2222899D+00 0.2941249D+01 0.6834831D+00 0.2222899D+00 0.2941249D+01
EXPONENTS  0.6834831D+00 0.2222899D+00 0.2941249D+01 0.6834831D+00 0.2222899D+00
EXPONENTS  0.7161684D+02 0.1304510D+02 0.3530512D+01 0.2941249D+01 0.6834831D+00
EXPONENTS  0.2222899D+00 0.2941249D+01 0.6834831D+00 0.2222899D+00 0.2941249D+01
EXPONENTS  0.6834831D+00 0.2222899D+00 0.2941249D+01 0.6834831D+00 0.2222899D+00
EXPONENTS  0.7161684D+02 0.1304510D+02 0.3530512D+01 0.2941249D+01 0.6834831D+00
EXPONENTS  0.2222899D+00 0.2941249D+01 0.6834831D+00 0.2222899D+00 0.2941249D+01
EXPONENTS  0.6834831D+00 0.2222899D+00 0.2941249D+01 0.6834831D+00 0.2222899D+00
EXPONENTS  0.3425251D+01 0.6239137D+00 0.1688554D+00 0.3425251D+01 0.6239137D+00
EXPONENTS  0.1688554D+00 0.3425251D+01 0.6239137D+00 0.1688554D+00 0.3425251D+01
EXPONENTS  0.6239137D+00 0.1688554D+00 0.3425251D+01 0.6239137D+00 0.1688554D+00
EXPONENTS  0.3425251D+01 0.6239137D+00 0.1688554D+00 0.3425251D+01 0.6239137D+00
EXPONENTS  0.1688554D+00
MO    1     MO 0.0        OCC NO =    2.0000005  ORB. ENERGY =    0.000000
 -0.63119838D-01 -0.61046760D-01 -0.19025609D-01 -0.48881642D-04  0.65383146D-04
  0.49345635D-04  0.10824014D-02  0.68064306D-03  0.10782530D-03 -0.10262702D-03
 -0.64534624D-04 -0.10223369D-04  0.44039258D-03  0.27693067D-03  0.43870472D-04
  0.13647459D+00  0.13199228D+00  0.41136230D-01  0.27397422D-03 -0.36646266D-03
 -0.27657483D-03 -0.41905943D-03 -0.26351582D-03 -0.41745333D-04 -0.10926320D-02
 -0.68707633D-03 -0.10884443D-03  0.44688143D-03  0.28101104D-03  0.44516869D-04
  0.22958211D+01  0.22204182D+01  0.69200736D+00  0.15251783D-03 -0.20400492D-03
 -0.15396556D-03  0.93204012D-02  0.58609184D-02  0.92846795D-03 -0.22846445D-02
 -0.14366458D-02 -0.22758883D-03 -0.83574703D-02 -0.52554016D-02 -0.83254391D-03
  0.26190842D+01  0.25330642D+01  0.78944547D+00 -0.21579971D-02  0.28864954D-02
  0.21784811D-02 -0.14208119D-01 -0.89344462D-02 -0.14153664D-02 -0.12076385D-01
 -0.75939549D-02 -0.12030100D-02  0.30669935D-02  0.19286078D-02  0.30552388D-03
 -0.15828118D-01 -0.15308266D-01 -0.47709180D-02  0.10526198D-02 -0.14079640D-02
 -0.10626114D-02  0.98583883D-03  0.61992191D-03  0.98206046D-04 -0.14155071D-02
 -0.89010882D-03 -0.14100819D-03 -0.56550224D-03 -0.35560299D-03 -0.56333488D-04
 -0.15375275D-02 -0.14870296D-02 -0.46344218D-03 -0.95196409D-04  0.12733289D-03
  0.96100029D-04 -0.31837603D-03 -0.20020339D-03 -0.31715581D-04 -0.40981546D-04
 -0.25770296D-04 -0.40824478D-05 -0.40321876D-03 -0.25355478D-03 -0.40167337D-04
  0.96555883D+00  0.93384646D+00  0.29103915D+00 -0.15863399D-02  0.21218578D-02
  0.16013977D-02  0.95344391D-04  0.59955111D-04  0.94978970D-05 -0.51827703D-03
 -0.32590650D-03 -0.51629066D-04 -0.63438724D-03 -0.39891972D-03 -0.63195586D-04
  0.20245888D-03  0.19580941D-03  0.61025241D-04 -0.13880457D-03 -0.13424574D-03
 -0.41838532D-04 -0.50630626D-04 -0.48967737D-04 -0.15261105D-04 -0.13802052D-02
 -0.13348744D-02 -0.41602204D-03 -0.13022408D-02 -0.12594706D-02 -0.39252197D-03
 -0.23126563D-04 -0.22367005D-04 -0.69708184D-05 -0.47096495D-03 -0.45549680D-03
 -0.14195846D-03
MO    2     MO 0.0        OCC NO =    2.0000005  ORB. ENERGY =    0.000000
  0.18689380D+00  0.18075554D+00  0.56333608D-01  0.78345318D-04 -0.10479319D-03
 -0.79088986D-04 -0.53211311D-04 -0.33460700D-04 -0.53007371D-05  0.96430236D-03
  0.60637920D-03  0.96060653D-04 -0.94682555D-03 -0.59538931D-03 -0.94319670D-04
  0.11193566D+00  0.10825930D+00  0.33739694D-01  0.15521413D-03 -0.20761144D-03
 -0.15668745D-03 -0.79892878D-03 -0.50238786D-03 -0.79586677D-04 -0.18381492D-02
 -0.11558776D-02 -0.18311042D-03 -0.66082474D-03 -0.41554433D-03 -0.65829204D-04
  0.29665069D+01  0.28690763D+01  0.89416577D+00 -0.27077834D-03  0.36218791D-03
  0.27334862D-03  0.10963088D-01  0.68938842D-02  0.10921071D-02 -0.31679759D-02
 -0.19921082D-02 -0.31558341D-03 -0.10866243D-01 -0.68329850D-02 -0.10824596D-02
 -0.22148124D+01 -0.21420701D+01 -0.66758970D+00  0.20221677D-02 -0.27048127D-02
 -0.20413625D-02  0.10579318D-01  0.66525591D-02  0.10538771D-02  0.94650593D-02
  0.59518833D-02  0.94287831D-03 -0.20532392D-02 -0.12911319D-02 -0.20453699D-03
  0.13621101D-01  0.13173736D-01  0.41056779D-02 -0.12334974D-03  0.16499024D-03
  0.12452059D-03  0.17471733D-02  0.10986694D-02  0.17404770D-03  0.39823878D-02
  0.25042323D-02  0.39671247D-03 -0.52427632D-03 -0.32967902D-03 -0.52226695D-04
  0.11919105D-01  0.11527640D-01  0.35926618D-02  0.42340169D-04 -0.56633396D-04
 -0.42742069D-04  0.12347776D-04  0.77646130D-05  0.12300452D-05  0.17822969D-03
  0.11207561D-03  0.17754660D-04  0.18384992D-03  0.11560977D-03  0.18314529D-04
  0.83455814D+00  0.80714830D+00  0.25155287D+00 -0.12367028D-02  0.16541899D-02
  0.12484418D-02  0.17852033D-02  0.11225838D-02  0.17783613D-03 -0.11591629D-02
 -0.72891274D-03 -0.11547202D-03 -0.17278115D-02 -0.10864942D-02 -0.17211894D-03
 -0.12005556D-04 -0.11611251D-04 -0.36187199D-05 -0.62801443D-04 -0.60738821D-04
 -0.18929638D-04  0.61102519D-04  0.59095696D-04  0.18417547D-04  0.10074170D-02
  0.97432990D-03  0.30365607D-03  0.11050973D-02  0.10688020D-02  0.33309889D-03
 -0.48541130D-04 -0.46946868D-04 -0.14631288D-04 -0.26722256D-03 -0.25844602D-03
 -0.80546337D-04
MO    3     MO 0.0        OCC NO =    2.0000003  ORB. ENERGY =    0.000000
  0.41525499D+01  0.40161655D+01  0.12516634D+01 -0.28780526D-03  0.38496278D-03
  0.29053716D-03 -0.65953224D-03 -0.41473157D-03 -0.65700449D-04  0.11971772D-01
  0.75281715D-02  0.11925889D-02 -0.15918371D-01 -0.10009899D-01 -0.15857361D-02
  0.85493674D+00  0.82685760D+00  0.25769540D+00 -0.10514834D-03  0.14064440D-03
  0.10614643D-03 -0.27402418D-02 -0.17231376D-02 -0.27297395D-03  0.13983960D-02
  0.87934892D-03  0.13930364D-03  0.33433961D-02  0.21024172D-02  0.33305821D-03
 -0.20840308D+00 -0.20155838D+00 -0.62816944D-01  0.36403131D-04 -0.48692128D-04
 -0.36748675D-04 -0.67447420D-03 -0.42412748D-03 -0.67188918D-04  0.27930214D-03
  0.17563268D-03  0.27823168D-04  0.82310886D-03  0.51759294D-03  0.81995418D-04
  0.11670998D+00  0.11287681D+00  0.35178773D-01 -0.14705285D-03  0.19669507D-03
  0.14844870D-03 -0.42890025D-03 -0.26970399D-03 -0.42725643D-04 -0.67155850D-03
 -0.42229401D-03 -0.66898466D-04  0.12506344D-04  0.78643249D-05  0.12458412D-05
  0.39096365D-01  0.37812302D-01  0.11784443D-01 -0.18453817D-04  0.24683471D-04
  0.18628984D-04 -0.16068830D-03 -0.10104511D-03 -0.16007244D-04 -0.53124760D-03
 -0.33406275D-03 -0.52921152D-04 -0.13643557D-03 -0.85794349D-04 -0.13591266D-04
  0.10661683D+00  0.10311516D+00  0.32136491D-01  0.34435081D-03 -0.46059703D-03
 -0.34761945D-03 -0.85371981D-03 -0.53684193D-03 -0.85044780D-04  0.29835780D-02
  0.18761539D-02  0.29721430D-03 -0.95171039D-03 -0.59846103D-03 -0.94806282D-04
  0.65998756D-01  0.63831123D-01  0.19893373D-01 -0.41078459D-04  0.54945757D-04
  0.41468383D-04 -0.73887603D-03 -0.46462508D-03 -0.73604418D-04  0.60695220D-03
  0.38166783D-03  0.60462596D-04  0.79633637D-03  0.50075768D-03  0.79328430D-04
 -0.22961361D-04 -0.22207229D-04 -0.69210233D-05 -0.20457663D-03 -0.19785761D-03
 -0.61663575D-04  0.20552860D-03  0.19877831D-03  0.61950517D-04 -0.81165882D-04
 -0.78500107D-04 -0.24465055D-04 -0.13483901D-03 -0.13041042D-03 -0.40643232D-04
 -0.13993662D-02 -0.13534061D-02 -0.42179756D-03 -0.29220077D-03 -0.28260386D-03
 -0.88075279D-04
MO    4     MO 0.0        OCC NO =    2.0000003  ORB. ENERGY =    0.000000
 -0.87480796D+00 -0.84607617D+00 -0.26368499D+00  0.44318053D-04 -0.59278976D-04
 -0.44738727D-04  0.52376311D-03  0.32935630D-03  0.52175571D-04 -0.23949524D-02
 -0.15060103D-02 -0.23857734D-03  0.32396794D-02  0.20371973D-02  0.32272628D-03
  0.41032180D+01  0.39684539D+01  0.12367937D+01 -0.54205487D-03  0.72504218D-03
  0.54720015D-03 -0.13821819D-01 -0.86915308D-02 -0.13768845D-02  0.62842149D-02
  0.39516830D-02  0.62601297D-03  0.15111262D-01  0.95023673D-02  0.15053346D-02
 -0.43974329D+00 -0.42530057D+00 -0.13254761D+00 -0.44979670D-04  0.60163942D-04
  0.45406625D-04 -0.18221099D-02 -0.11457916D-02 -0.18151264D-03  0.52075721D-03
  0.32746611D-03  0.51876133D-04  0.16837097D-02  0.10587618D-02  0.16772566D-03
 -0.97142628D-01 -0.93952121D-01 -0.29280772D-01  0.13094626D-03 -0.17515121D-03
 -0.13218923D-03  0.34819642D-03  0.21895525D-03  0.34686191D-04  0.43361954D-03
  0.27267160D-03  0.43195763D-04 -0.35859974D-04 -0.22549714D-04 -0.35722535D-05
  0.10367256D-01  0.10026758D-01  0.31249027D-02  0.29985754D-04 -0.40108368D-04
 -0.30270384D-04  0.50264673D-03  0.31607775D-03  0.50072027D-04  0.39520326D-03
  0.24851442D-03  0.39368859D-04 -0.38927702D-03 -0.24478784D-03 -0.38778506D-04
 -0.20382602D-01 -0.19713165D-01 -0.61437326D-02 -0.79877374D-04  0.10684244D-03
  0.80635583D-04  0.16713348D-03  0.10509801D-03  0.16649291D-04 -0.61573000D-03
 -0.38718755D-03 -0.61337013D-04  0.20601246D-03  0.12954617D-03  0.20522289D-04
  0.32377984D+00  0.31314577D+00  0.97593858D-01 -0.28935219D-03  0.38703193D-03
  0.29209877D-03 -0.21130615D-02 -0.13287498D-02 -0.21049629D-03  0.27049970D-02
  0.17009747D-02  0.26946297D-03  0.30362789D-02  0.19092937D-02  0.30246420D-03
 -0.12612496D-03 -0.12198257D-03 -0.38016638D-04  0.20369210D-04  0.19700213D-04
  0.61396959D-05 -0.50348390D-04 -0.48694770D-04 -0.15176033D-04  0.62539835D-04
  0.60485805D-04  0.18850784D-04  0.66100969D-04  0.63929980D-04  0.19924182D-04
  0.18076313D-03  0.17482623D-03  0.54485700D-04 -0.13764677D-02 -0.13312596D-02
 -0.41489546D-03
MO    5     MO 0.0        OCC NO =    2.0000002  ORB. ENERGY =    0.000000
 -0.26308914D-01 -0.25444837D-01 -0.79300441D-02  0.84073942D-05 -0.11245569D-04
 -0.84871987D-05  0.50455038D-03  0.31727482D-03  0.50261662D-04  0.26660311D-03
  0.16764719D-03  0.26558131D-04  0.93914886D-04  0.59056201D-04  0.93554944D-05
 -0.67148094D+00 -0.64942713D+00 -0.20239807D+00  0.12887106D-02 -0.17237546D-02
 -0.13009433D-02  0.19365527D-02  0.12177563D-02  0.19291306D-03 -0.43430365D-02
 -0.27310179D-02 -0.43263912D-03 -0.36983393D-02 -0.23256150D-02 -0.36841648D-03
 -0.19189566D+01 -0.18559313D+01 -0.57841272D+00  0.78140876D-03 -0.10451973D-02
 -0.78882603D-03 -0.61582530D-02 -0.38724747D-02 -0.61346506D-03  0.16437731D-02
  0.10336486D-02  0.16374731D-03  0.58546603D-02  0.36815675D-02  0.58322214D-03
 -0.28060994D+00 -0.27139372D+00 -0.84581568D-01  0.22367364D-03 -0.29918156D-03
 -0.22579679D-03  0.76702939D-03  0.48232867D-03  0.76408964D-04 -0.18648437D-03
 -0.11726637D-03 -0.18576964D-04 -0.13415752D-03 -0.84361851D-04 -0.13364335D-04
 -0.41488713D+00 -0.40126077D+00 -0.12505546D+00  0.19873972D-02 -0.26583043D-02
 -0.20062619D-02  0.33851548D-02  0.21286762D-02  0.33721807D-03  0.28366264D-02
  0.17837468D-02  0.28257546D-03 -0.15651692D-02 -0.98422040D-03 -0.15591705D-03
 -0.13226720D-01 -0.12792308D-01 -0.39868036D-02 -0.11747297D-03  0.15712959D-03
  0.11858804D-03 -0.42645551D-03 -0.26816667D-03 -0.42482106D-04  0.26301209D-03
  0.16538906D-03  0.26200406D-04 -0.29488130D-03 -0.18542927D-03 -0.29375112D-04
  0.23086606D+01  0.22328360D+01  0.69587745D+00 -0.57335537D-02  0.76690913D-02
  0.57879776D-02 -0.33511458D-02 -0.21072904D-02 -0.33383021D-03 -0.28378947D-03
 -0.17845443D-03 -0.28270181D-04  0.27202881D-02  0.17105902D-02  0.27098622D-03
  0.36008881D-03  0.34826222D-03  0.10853812D-03 -0.12179807D-03 -0.11779779D-03
 -0.36712427D-04  0.15776235D-04  0.15258088D-04  0.47552796D-05  0.18036376D-03
  0.17443997D-03  0.54365320D-04  0.12399349D-03  0.11992111D-03  0.37374172D-04
  0.14554750D-04  0.14076721D-04  0.43870990D-05 -0.15614247D-03 -0.15101419D-03
 -0.47064528D-04
MO    6     MO 0.0        OCC NO =    2.0000001  ORB. ENERGY =    0.000000
 -0.13569460D+00 -0.13123791D+00 -0.40901123D-01  0.54399781D-03 -0.72764102D-03
 -0.54916153D-03  0.10241269D-02  0.64399847D-03  0.10202018D-03 -0.18941130D-02
 -0.11910691D-02 -0.18868535D-03  0.16297372D-03  0.10248225D-03  0.16234910D-04
 -0.12018143D+00 -0.11623424D+00 -0.36225137D-01  0.19184932D-03 -0.25661396D-03
 -0.19367039D-03  0.19124140D-03  0.12025772D-03  0.19050844D-04 -0.12155491D-03
 -0.76436990D-04 -0.12108903D-04 -0.43513291D-03 -0.27362325D-03 -0.43346520D-04
 -0.26861201D+00 -0.25978984D+00 -0.80965147D-01  0.16848278D-03 -0.22535933D-03
 -0.17008205D-03 -0.95556601D-05 -0.60088555D-05 -0.95190366D-06  0.13296402D-02
  0.83611346D-03  0.13245442D-03  0.49020411D-03  0.30825350D-03  0.48832533D-04
 -0.11343805D-01 -0.10971235D-01 -0.34192546D-02  0.74832027D-03 -0.10009388D-02
 -0.75542346D-03 -0.78190001D-03 -0.49167971D-03 -0.77890326D-04  0.33857309D-02
  0.21290385D-02  0.33727546D-03  0.27261522D-03  0.17142777D-03  0.27157039D-04
  0.23262180D+01  0.22498168D+01  0.70116962D+00 -0.54768345D-02  0.73257085D-02
  0.55288215D-02 -0.11151208D-02 -0.70121788D-03 -0.11108469D-03  0.52930880D-03
  0.33284358D-03  0.52728015D-04 -0.89236699D-03 -0.56114431D-03 -0.88894687D-04
  0.12794301D+01  0.12374091D+01  0.38564637D+00 -0.24348482D-02  0.32568062D-02
  0.24579602D-02  0.25411424D-02  0.15979385D-02  0.25314031D-03 -0.36446982D-03
 -0.22918840D-03 -0.36307293D-04  0.16716401D-02  0.10511721D-02  0.16652333D-03
  0.32415841D+00  0.31351190D+00  0.97707964D-01 -0.54480687D-04  0.72872320D-04
  0.54997827D-04 -0.26695887D-02 -0.16787090D-02 -0.26593571D-03 -0.20046396D-02
 -0.12605712D-02 -0.19969565D-03  0.14068848D-02  0.88468693D-03  0.14014927D-03
 -0.19577634D-02 -0.18934635D-02 -0.59010987D-03 -0.10821949D-02 -0.10466518D-02
 -0.32619565D-03 -0.10916260D-02 -0.10557732D-02 -0.32903838D-03 -0.22156874D-03
 -0.21429164D-03 -0.66785343D-04 -0.17122443D-03 -0.16560082D-03 -0.51610542D-04
 -0.21248558D-03 -0.20550680D-03 -0.64047494D-04 -0.53315373D-04 -0.51564308D-04
 -0.16070342D-04
MO    7     MO 0.0        OCC NO =    2.0000000  ORB. ENERGY =    0.000000
 -0.11750284D+00 -0.11364364D+00 -0.35417757D-01  0.96252371D-03 -0.12874532D-02
 -0.97166015D-03  0.37740418D-02  0.23732188D-02  0.37595773D-03 -0.32252318D-02
 -0.20281123D-02 -0.32128707D-03  0.33289849D-03  0.20933550D-03  0.33162261D-04
  0.57808173D-01  0.55909548D-01  0.17424564D-01 -0.11325204D-03  0.15148375D-03
  0.11432704D-03 -0.14267215D-03 -0.89716078D-04 -0.14212534D-04  0.22449008D-03
  0.14116539D-03  0.22362969D-04  0.16900744D-03  0.10627641D-03  0.16835969D-04
  0.12728387D+00  0.12310342D+00  0.38365959D-01 -0.74676403D-04  0.99885722D-04
  0.75385244D-04  0.54562856D-04  0.34310588D-04  0.54353736D-05 -0.76715408D-03
 -0.48240707D-03 -0.76421385D-04 -0.22488425D-03 -0.14141325D-03 -0.22402235D-04
  0.11488346D-01  0.11111028D-01  0.34628221D-02 -0.44378589D-03  0.59359948D-03
  0.44799838D-03  0.35766497D-03  0.22490933D-03  0.35629416D-04 -0.20323118D-02
 -0.12779722D-02 -0.20245227D-03 -0.30460685D-03 -0.19154496D-03 -0.30343940D-04
 -0.12657948D+01 -0.12242217D+01 -0.38153642D+00  0.39618143D-02 -0.52992467D-02
 -0.39994205D-02 -0.27439611D-02 -0.17254763D-02 -0.27334444D-03  0.40460167D-03
  0.25442438D-03  0.40305097D-04 -0.13877970D-02 -0.87268402D-03 -0.13824781D-03
  0.23546950D+01  0.22773585D+01  0.70975317D+00 -0.63852026D-02  0.85407243D-02
  0.64458120D-02 -0.18288590D-02 -0.11500356D-02 -0.18218497D-03  0.57505376D-03
  0.36160923D-03  0.57284978D-04 -0.55533053D-03 -0.34920674D-03 -0.55320214D-04
 -0.16653936D+00 -0.16106962D+00 -0.50198364D-01  0.27222729D-04 -0.36412600D-04
 -0.27481132D-04  0.13871379D-02  0.87226956D-03  0.13818215D-03  0.11616201D-02
  0.73045791D-03  0.11571681D-03 -0.76688863D-03 -0.48224015D-03 -0.76394942D-04
  0.10725919D-02  0.10373642D-02  0.32330112D-03 -0.20336902D-02 -0.19668966D-02
 -0.61299576D-03 -0.19129429D-02 -0.18501150D-02 -0.57660005D-03  0.11669048D-03
  0.11285796D-03  0.35172895D-04  0.56859069D-04  0.54991616D-04  0.17138485D-04
 -0.32443346D-03 -0.31377791D-03 -0.97790871D-04  0.21514908D-04  0.20808283D-04
  0.64850328D-05
MO    8     MO 0.0        OCC NO =    1.9995862  ORB. ENERGY =    0.000000
  0.68866365D-01  0.66604551D-01  0.20757729D-01  0.16357602D-01 -0.21879615D-01
 -0.16512872D-01  0.31139233D-01  0.19581185D-01  0.31019887D-02  0.22153227D-01
  0.13930544D-01  0.22068322D-02 -0.17591977D-01 -0.11062307D-01 -0.17524553D-02
  0.77058834D+00  0.74527949D+00  0.23227106D+00  0.18694747D+00 -0.25005735D+00
 -0.18872201D+00 -0.21733239D+00 -0.13666444D+00 -0.21649943D-01  0.96270165D-01
  0.60537263D-01  0.95901196D-02  0.23748520D+00  0.14933706D+00  0.23657500D-01
 -0.59587634D+00 -0.57630566D+00 -0.17960930D+00 -0.14101149D+00  0.18861426D+00
  0.14234999D+00 -0.94796070D-01 -0.59610312D-01 -0.94432750D-02  0.83758007D-01
  0.52669283D-01  0.83436993D-02  0.11210312D+00  0.70493451D-01  0.11167347D-01
 -0.49215869D-03 -0.47599446D-03 -0.14834668D-03  0.26364601D-03 -0.35264784D-03
 -0.26614859D-03 -0.12332236D-02 -0.77548411D-03 -0.12284971D-03 -0.36408226D-02
 -0.22894470D-02 -0.36268687D-03  0.71888032D-03  0.45205124D-03  0.71612511D-04
  0.59272047D-02  0.57325343D-02  0.17865805D-02 -0.21352777D-03  0.28561064D-03
  0.21555461D-03 -0.54604895D-02 -0.34337023D-02 -0.54395613D-03 -0.55279431D-03
 -0.34761189D-03 -0.55067564D-04  0.42333022D-02  0.26620140D-02  0.42170774D-03
  0.69451955D-02  0.67170907D-02  0.20934238D-02  0.59433151D-03 -0.79496641D-03
 -0.59997301D-03  0.29724149D-02  0.18691342D-02  0.29610227D-03  0.12547516D-02
  0.78902147D-03  0.12499426D-03 -0.98949218D-03 -0.62221924D-03 -0.98569981D-04
 -0.26354778D-01 -0.25489194D-01 -0.79438683D-02 -0.10568462D-02  0.14136172D-02
  0.10668780D-02 -0.36191652D-01 -0.22758282D-01 -0.36052942D-02  0.11561972D-01
  0.72704781D-02  0.11517659D-02  0.36084314D-01  0.22690785D-01  0.35946016D-02
 -0.35779677D-02 -0.34604546D-02 -0.10784725D-02 -0.48335210D-03 -0.46747711D-03
 -0.14569219D-03  0.10825448D-03  0.10469902D-03  0.32630111D-04  0.19881698D-02
  0.19228713D-02  0.59927500D-03 -0.86842309D-05 -0.83990100D-05 -0.26176046D-05
 -0.20339227D-02 -0.19671215D-02 -0.61306585D-03  0.20857467D-02  0.20172434D-02
  0.62868665D-03
MO    9     MO 0.0        OCC NO =    1.9995616  ORB. ENERGY =    0.000000
  0.82136034D+00  0.79438397D+00  0.24757478D+00  0.19853584D+00 -0.26555773D+00
 -0.20042038D+00  0.84151034D-01  0.52916428D-01  0.83828513D-02  0.19361633D+00
  0.12175114D+00  0.19287426D-01 -0.22910108D+00 -0.14406490D+00 -0.22822301D-01
  0.26412510D+00  0.25545030D+00  0.79612700D-01  0.62028291D-01 -0.82967850D-01
 -0.62617074D-01 -0.57518468D-01 -0.36169156D-01 -0.57298020D-02  0.16864541D-01
  0.10604876D-01  0.16799905D-02  0.59925526D-01  0.37682779D-01  0.59695853D-02
  0.46093592D+00  0.44579716D+00  0.13893550D+00  0.11033242D+00 -0.14757853D+00
 -0.11137972D+00  0.80496823D-01  0.50618562D-01  0.80188307D-02  0.14845155D-02
  0.93350320D-03  0.14788259D-03 -0.62902527D-01 -0.39554797D-01 -0.62661444D-02
  0.50600968D-02  0.48939053D-02  0.15252165D-02  0.79622787D-03 -0.10650191D-02
 -0.80378580D-03  0.13844180D-02  0.87055920D-03  0.13791120D-03 -0.73372745D-02
 -0.46138751D-02 -0.73091533D-03 -0.15740855D-03 -0.98982718D-04 -0.15680526D-04
  0.21833474D-01  0.21116385D-01  0.65810549D-02  0.36733280D-02 -0.49133729D-02
 -0.37081958D-02  0.16393054D-02  0.10308392D-02  0.16330225D-03  0.10119725D-01
  0.63635548D-02  0.10080940D-02 -0.38961009D-02 -0.24499728D-02 -0.38811685D-03
  0.67067654D-01  0.64864915D-01  0.20215561D-01  0.56078780D-02 -0.75009898D-02
 -0.56611089D-02 -0.11141172D-02 -0.70058678D-03 -0.11098472D-03  0.59831485D-02
  0.37623643D-02  0.59602172D-03 -0.19500446D-01 -0.12262403D-01 -0.19425707D-02
  0.84720559D-01  0.81938037D-01  0.25536507D-01  0.55175660D-02 -0.73801902D-02
 -0.55699397D-02 -0.56457529D-02 -0.35502009D-02 -0.56241147D-03 -0.23040071D-02
 -0.14488215D-02 -0.22951767D-03  0.16985945D-02  0.10681218D-02  0.16920844D-03
  0.12222265D-03  0.11820843D-03  0.36840404D-04 -0.86602965D-02 -0.83758618D-02
 -0.26103903D-02  0.29566105D-02  0.28595050D-02  0.89118280D-03 -0.93018077D-03
 -0.89963035D-03 -0.28037548D-03 -0.13862020D-02 -0.13406742D-02 -0.41782960D-03
 -0.96185521D-03 -0.93026448D-03 -0.28992281D-03 -0.31283079D-02 -0.30255632D-02
 -0.94293590D-03
MO   10     MO 0.0        OCC NO =    1.9995541  ORB. ENERGY =    0.000000
 -0.52808760D+00 -0.51074334D+00 -0.15917639D+00 -0.12773628D+00  0.17085759D+00
  0.12894877D+00  0.49604762D-02  0.31192805D-02  0.49414644D-03 -0.10456478D+00
 -0.65753142D-01 -0.10416402D-01  0.14999191D+00  0.94318937D-01  0.14941704D-01
  0.53062535D+00  0.51319774D+00  0.15994132D+00  0.12546331D+00 -0.16781731D+00
 -0.12665423D+00 -0.12095554D+00 -0.76060090D-01 -0.12049196D-01  0.38769181D-01
  0.24379101D-01  0.38620593D-02  0.12608898D+00  0.79288132D-01  0.12560572D-01
  0.64599089D+00  0.62477427D+00  0.19471485D+00  0.15461644D+00 -0.20681199D+00
 -0.15608409D+00  0.10960804D+00  0.68924480D-01  0.10918796D-01  0.12848082D-01
  0.80792190D-02  0.12798840D-02 -0.85999627D-01 -0.54078874D-01 -0.85670021D-02
  0.21499921D-01  0.20793787D-01  0.64805152D-02  0.63659056D-02 -0.85149131D-02
 -0.64263319D-02 -0.23137108D-01 -0.14549235D-01 -0.23048432D-02 -0.57337710D-02
 -0.36055491D-02 -0.57117955D-03  0.44328964D-02  0.27875242D-02  0.44159067D-03
  0.16006800D-01  0.15481080D-01  0.48247765D-02  0.21630438D-02 -0.28932458D-02
 -0.21835758D-02  0.18214123D-01  0.11453530D-01  0.18144315D-02  0.16501761D-01
  0.10376750D-01  0.16438516D-02 -0.45420599D-02 -0.28561691D-02 -0.45246518D-03
 -0.40850282D-01 -0.39508614D-01 -0.12313109D-01 -0.36662817D-02  0.49039479D-02
  0.37010827D-02 -0.33766806D-03 -0.21233474D-03 -0.33637390D-04 -0.47456785D-02
 -0.29842100D-02 -0.47274900D-03  0.10870646D-01  0.68357542D-02  0.10828983D-02
  0.12378929D+00  0.11972361D+00  0.37312620D-01  0.69485325D-02 -0.92942235D-02
 -0.70144891D-02 -0.66238137D-02 -0.41652318D-02 -0.65984270D-03 -0.20203635D-02
 -0.12704588D-02 -0.20126202D-03  0.80176677D-02  0.50417246D-02  0.79869389D-03
  0.10884920D-02  0.10527421D-02  0.32809372D-03  0.29114108D-02  0.28157898D-02
  0.87755869D-03 -0.18186510D-02 -0.17589201D-02 -0.54817855D-03  0.11373185D-03
  0.10999649D-03  0.34281101D-04  0.19621794D-02  0.18977345D-02  0.59144094D-03
 -0.10381097D-02 -0.10040145D-02 -0.31290748D-03 -0.43000750D-02 -0.41588453D-02
 -0.12961304D-02
MO   11     MO 0.0        OCC NO =    1.9992137  ORB. ENERGY =    0.000000
 -0.73514698D-01 -0.71100216D-01 -0.22158832D-01 -0.16125930D-01  0.21569734D-01
  0.16279000D-01  0.15038992D+01  0.94569221D+00  0.14981353D+00  0.44181917D+00
  0.27782775D+00  0.44012584D-01  0.67916331D-01  0.42707612D-01  0.67656032D-02
 -0.53094221D-01 -0.51350419D-01 -0.16003683D-01 -0.13572218D-01  0.18153938D-01
  0.13701048D-01 -0.69204514D-02 -0.43517655D-02 -0.68939278D-03  0.16013751D-01
  0.10069876D-01  0.15952376D-02 -0.24056857D-01 -0.15127597D-01 -0.23964655D-02
 -0.25391505D-01 -0.24557558D-01 -0.76535181D-02 -0.55101839D-02  0.73703161D-02
  0.55624875D-02 -0.89508186D-02 -0.56285150D-02 -0.89165133D-03 -0.11576418D-01
 -0.72795624D-02 -0.11532050D-02 -0.15411937D-02 -0.96914395D-03 -0.15352868D-03
  0.18784602D+00  0.18167649D+00  0.56620626D-01  0.45553026D-01 -0.60930852D-01
 -0.45985423D-01 -0.11829093D+00 -0.74384510D-01 -0.11783756D-01 -0.66727233D-01
 -0.41959875D-01 -0.66471492D-02  0.16762273D-01  0.10540567D-01  0.16698029D-02
  0.37511821D-01  0.36279800D-01  0.11306829D-01 -0.80723755D-03  0.10797454D-02
  0.81489998D-03  0.10621280D-01  0.66789459D-02  0.10580572D-02 -0.58377295D-02
 -0.36709210D-02 -0.58153556D-03  0.33965960D-01  0.21358707D-01  0.33835780D-02
  0.13247905D-01  0.12812797D-01  0.39931891D-02  0.23836918D-02 -0.31883803D-02
 -0.24063182D-02  0.11319188D+00  0.71178094D-01  0.11275806D-01  0.14416358D-01
  0.90653927D-02  0.14361105D-02  0.19079072D-01  0.11997433D-01  0.19005949D-02
  0.82173989D-02  0.79475105D-02  0.24768919D-02  0.35036378D-02 -0.46863986D-02
 -0.35368949D-02 -0.15947041D-01 -0.10027927D-01 -0.15885922D-02 -0.58066724D-03
 -0.36513914D-03 -0.57844175D-04  0.48764525D-02  0.30664442D-02  0.48577628D-03
 -0.39622143D-02 -0.38320812D-02 -0.11942923D-02 -0.20202279D-01 -0.19538765D-01
 -0.60893796D-02  0.82618182D-03  0.79904708D-03  0.24902807D-03 -0.16874401D-02
 -0.16320186D-02 -0.50862893D-03  0.47603864D-02  0.46040385D-02  0.14348777D-02
  0.18459185D-02  0.17852921D-02  0.55639755D-03 -0.31106000D-02 -0.30084369D-02
 -0.93759836D-03
MO   12     MO 0.0        OCC NO =    1.9991739  ORB. ENERGY =    0.000000
  0.19035830D-01  0.18410626D-01  0.57377879D-02  0.36760413D-02 -0.49170022D-02
 -0.37109349D-02 -0.41630512D+00 -0.26178383D+00 -0.41470957D-01 -0.13573102D+00
 -0.85351311D-01 -0.13521082D-01 -0.11344080D-01 -0.71334621D-02 -0.11300603D-02
 -0.20535446D-01 -0.19860990D-01 -0.61898030D-02 -0.61520189D-02  0.82288222D-02
  0.62104149D-02  0.31791275D-01  0.19991207D-01  0.31669431D-02  0.13178540D-01
  0.82870193D-02  0.13128031D-02  0.20413420D-01  0.12836506D-01  0.20335182D-02
 -0.22501893D-01 -0.21762851D-01 -0.67825301D-02 -0.41903244D-02  0.56048974D-02
  0.42300997D-02  0.78625416D-02  0.49441772D-02  0.78324073D-03 -0.14646127D-02
 -0.92098774D-03 -0.14589993D-03  0.11340551D-01  0.71312427D-02  0.11297087D-02
  0.68762843D+00  0.66504429D+00  0.20726526D+00  0.16174702D+00 -0.21634971D+00
 -0.16328235D+00 -0.37055779D+00 -0.23301668D+00 -0.36913758D-01 -0.31531335D+00
 -0.19827750D+00 -0.31410486D-01  0.78825553D-01  0.49567623D-01  0.78523443D-02
  0.10204126D+00  0.98689862D-01  0.30757319D-01  0.11734319D-01 -0.15695599D-01
 -0.11845703D-01 -0.63844822D-01 -0.40147337D-01 -0.63600128D-02 -0.37605341D-01
 -0.23647247D-01 -0.37461213D-02  0.10387447D-01  0.65319054D-02  0.10347636D-02
  0.41257060D-01  0.39902032D-01  0.12435721D-01  0.41717347D-02 -0.55800322D-02
 -0.42113335D-02 -0.31493534D-01 -0.19803979D-01 -0.31372830D-02 -0.21459695D-01
 -0.13494432D-01 -0.21377447D-02 -0.19404981D-01 -0.12202373D-01 -0.19330608D-02
  0.39084089D-02  0.37800429D-02  0.11780743D-02  0.37916182D-02 -0.50715956D-02
 -0.38276089D-02 -0.22347154D-01 -0.14052490D-01 -0.22261505D-02 -0.44524267D-02
 -0.27998054D-02 -0.44353622D-03  0.11031581D-01  0.69369543D-02  0.10989301D-02
 -0.33806016D-02 -0.32695706D-02 -0.10189824D-02  0.13493545D-02  0.13050369D-02
  0.40672300D-03 -0.71065826D-02 -0.68731773D-02 -0.21420692D-02 -0.36374715D-02
 -0.35180041D-02 -0.10964082D-02 -0.52054019D-02 -0.50344381D-02 -0.15690145D-02
 -0.13290736D-02 -0.12854221D-02 -0.40060992D-03 -0.41149995D-02 -0.39798484D-02
 -0.12403449D-02
MO   13     MO 0.0        OCC NO =    1.9983577  ORB. ENERGY =    0.000000
  0.96647408D-01  0.93473165D-01  0.29131503D-01  0.32443525D-01 -0.43395836D-01
 -0.32751485D-01  0.39001407D-01  0.24525131D-01  0.38851928D-02  0.16324864D+00
  0.10265513D+00  0.16262297D-01 -0.10442837D+00 -0.65667359D-01 -0.10402813D-01