 opt threonine m062x
GAUSSIAN             32 MOL ORBITALS    147 PRIMITIVES       17 NUCLEI
  O    1    (CENTRE  1)   2.49985624 -2.99826788 -0.43407829  CHARGE =  8.0
  O    2    (CENTRE  2)  -2.83615096 -2.64908676 -0.60385787  CHARGE =  8.0
  O    3    (CENTRE  3)  -3.47122572  0.90811811  1.88695972  CHARGE =  8.0
  N    4    (CENTRE  4)   0.02851420  3.70947356 -1.14094224  CHARGE =  7.0
  C    5    (CENTRE  5)   2.52849532 -0.25846724 -0.45644627  CHARGE =  6.0
  C    6    (CENTRE  6)  -0.05442593  0.88682978 -1.41419358  CHARGE =  6.0
  C    7    (CENTRE  7)   3.10120486  0.63526427  2.26791079  CHARGE =  6.0
  C    8    (CENTRE  8)  -2.28781018 -0.17109776  0.18590956  CHARGE =  6.0
  H    9    (CENTRE  9)  -0.35511812  0.23818888 -3.38554543  CHARGE =  1.0
  H   10    (CENTRE 10)   4.01568526  0.48569850 -1.74190007  CHARGE =  1.0
  H   11    (CENTRE 11)   2.86688802  2.68948555  2.36244598  CHARGE =  1.0
  H   12    (CENTRE 12)   5.03181212  0.11692258  2.80193448  CHARGE =  1.0
  H   13    (CENTRE 13)   1.77781772 -0.25308350  3.58799240  CHARGE =  1.0
  H   14    (CENTRE 14)  -1.75283712  4.36651049 -1.73513546  CHARGE =  1.0
  H   15    (CENTRE 15)   1.25852804  4.34348738 -2.57173792  CHARGE =  1.0
  H   16    (CENTRE 16)   1.93300527 -3.42030196 -2.22248500  CHARGE =  1.0
  H   17    (CENTRE 17)  -4.24000149 -3.17450498  0.59975523  CHARGE =  1.0
CENTRE ASSIGNMENTS    1  1  1  1  1  1  1  1  1  1  1  1  1  1  1  2  2  2  2  2
CENTRE ASSIGNMENTS    2  2  2  2  2  2  2  2  2  2  3  3  3  3  3  3  3  3  3  3
CENTRE ASSIGNMENTS    3  3  3  3  3  4  4  4  4  4  4  4  4  4  4  4  4  4  4  4
CENTRE ASSIGNMENTS    5  5  5  5  5  5  5  5  5  5  5  5  5  5  5  6  6  6  6  6
CENTRE ASSIGNMENTS    6  6  6  6  6  6  6  6  6  6  7  7  7  7  7  7  7  7  7  7
CENTRE ASSIGNMENTS    7  7  7  7  7  8  8  8  8  8  8  8  8  8  8  8  8  8  8  8
CENTRE ASSIGNMENTS    9  9  9 10 10 10 11 11 11 12 12 12 13 13 13 14 14 14 15 15
CENTRE ASSIGNMENTS   15 16 16 16 17 17 17
TYPE ASSIGNMENTS      1  1  1  1  1  1  2  2  2  3  3  3  4  4  4  1  1  1  1  1
TYPE ASSIGNMENTS      1  2  2  2  3  3  3  4  4  4  1  1  1  1  1  1  2  2  2  3
TYPE ASSIGNMENTS      3  3  4  4  4  1  1  1  1  1  1  2  2  2  3  3  3  4  4  4
TYPE ASSIGNMENTS      1  1  1  1  1  1  2  2  2  3  3  3  4  4  4  1  1  1  1  1
TYPE ASSIGNMENTS      1  2  2  2  3  3  3  4  4  4  1  1  1  1  1  1  2  2  2  3
TYPE ASSIGNMENTS      3  3  4  4  4  1  1  1  1  1  1  2  2  2  3  3  3  4  4  4
TYPE ASSIGNMENTS      1  1  1  1  1  1  1  1  1  1  1  1  1  1  1  1  1  1  1  1
TYPE ASSIGNMENTS      1  1  1  1  1  1  1
EXPONENTS  0.1307093D+03 0.2380887D+02 0.6443608D+01 0.5033151D+01 0.1169596D+01
EXPONENTS  0.3803890D+00 0.5033151D+01 0.1169596D+01 0.3803890D+00 0.5033151D+01
EXPONENTS  0.1169596D+01 0.3803890D+00 0.5033151D+01 0.1169596D+01 0.3803890D+00
EXPONENTS  0.1307093D+03 0.2380887D+02 0.6443608D+01 0.5033151D+01 0.1169596D+01
EXPONENTS  0.3803890D+00 0.5033151D+01 0.1169596D+01 0.3803890D+00 0.5033151D+01
EXPONENTS  0.1169596D+01 0.3803890D+00 0.5033151D+01 0.1169596D+01 0.3803890D+00
EXPONENTS  0.1307093D+03 0.2380887D+02 0.6443608D+01 0.5033151D+01 0.1169596D+01
EXPONENTS  0.3803890D+00 0.5033151D+01 0.1169596D+01 0.3803890D+00 0.5033151D+01
EXPONENTS  0.1169596D+01 0.3803890D+00 0.5033151D+01 0.1169596D+01 0.3803890D+00
EXPONENTS  0.9910617D+02 0.1805231D+02 0.4885660D+01 0.3780456D+01 0.8784966D+00
EXPONENTS  0.2857144D+00 0.3780456D+01 0.8784966D+00 0.2857144D+00 0.3780456D+01
EXPONENTS  0.8784966D+00 0.2857144D+00 0.3780456D+01 0.8784966D+00 0.2857144D+00
EXPONENTS  0.7161684D+02 0.1304510D+02 0.3530512D+01 0.2941249D+01 0.6834831D+00
EXPONENTS  0.2222899D+00 0.2941249D+01 0.6834831D+00 0.2222899D+00 0.2941249D+01
EXPONENTS  0.6834831D+00 0.2222899D+00 0.2941249D+01 0.6834831D+00 0.2222899D+00
EXPONENTS  0.7161684D+02 0.1304510D+02 0.3530512D+01 0.2941249D+01 0.6834831D+00
EXPONENTS  0.2222899D+00 0.2941249D+01 0.6834831D+00 0.2222899D+00 0.2941249D+01
EXPONENTS  0.6834831D+00 0.2222899D+00 0.2941249D+01 0.6834831D+00 0.2222899D+00
EXPONENTS  0.7161684D+02 0.1304510D+02 0.3530512D+01 0.2941249D+01 0.6834831D+00
EXPONENTS  0.2222899D+00 0.2941249D+01 0.6834831D+00 0.2222899D+00 0.2941249D+01
EXPONENTS  0.6834831D+00 0.2222899D+00 0.2941249D+01 0.6834831D+00 0.2222899D+00
EXPONENTS  0.7161684D+02 0.1304510D+02 0.3530512D+01 0.2941249D+01 0.6834831D+00
EXPONENTS  0.2222899D+00 0.2941249D+01 0.6834831D+00 0.2222899D+00 0.2941249D+01
EXPONENTS  0.6834831D+00 0.2222899D+00 0.2941249D+01 0.6834831D+00 0.2222899D+00
EXPONENTS  0.3425251D+01 0.6239137D+00 0.1688554D+00 0.3425251D+01 0.6239137D+00
EXPONENTS  0.1688554D+00 0.3425251D+01 0.6239137D+00 0.1688554D+00 0.3425251D+01
EXPONENTS  0.6239137D+00 0.1688554D+00 0.3425251D+01 0.6239137D+00 0.1688554D+00
EXPONENTS  0.3425251D+01 0.6239137D+00 0.1688554D+00 0.3425251D+01 0.6239137D+00
EXPONENTS  0.1688554D+00 0.3425251D+01 0.6239137D+00 0.1688554D+00 0.3425251D+01
EXPONENTS  0.6239137D+00 0.1688554D+00
MO    1     MO 0.0        OCC NO =    2.0000000  ORB. ENERGY =  -19.422445
  0.89439145D-03  0.86501647D-03  0.26958785D-03 -0.19531192D-04  0.26124547D-04
  0.19716585D-04  0.40890807D-05  0.25713237D-05  0.40734087D-06 -0.20988089D-04
 -0.13197874D-04 -0.20907650D-05 -0.99218082D-04 -0.62390992D-04 -0.98837814D-05
  0.42264932D+01  0.40876802D+01  0.12739514D+01 -0.63814181D-02  0.85356622D-02
  0.64419916D-02 -0.27220961D-02 -0.17117270D-02 -0.27116632D-03  0.39624221D-02
  0.24916774D-02  0.39472356D-03  0.50740126D-02  0.31906753D-02  0.50545658D-03
  0.43311738D-02  0.41889227D-02  0.13055042D-02 -0.54164334D-04  0.72449173D-04
  0.54678471D-04 -0.51897450D-03 -0.32634509D-03 -0.51698545D-04 -0.91397904D-03
 -0.57473454D-03 -0.91047608D-04  0.19215747D-04  0.12083378D-04  0.19142100D-05
  0.21968777D-04  0.21247245D-04  0.66218382D-05  0.69971778D-05 -0.93592905D-05
 -0.70635962D-05  0.69615122D-04  0.43775857D-04  0.69348312D-05  0.44086154D-04
  0.27722557D-04  0.43917187D-05 -0.61493722D-04 -0.38668903D-04 -0.61258039D-05
 -0.20799870D-04 -0.20116729D-04 -0.62695056D-05 -0.49151093D-05  0.65743557D-05
  0.49617643D-05 -0.26300665D-04 -0.16538564D-04 -0.26199864D-05 -0.27504422D-05
 -0.17295518D-05 -0.27399007D-06  0.22360850D-04  0.14061103D-04  0.22275149D-05
 -0.61347864D-04 -0.59332983D-04 -0.18491499D-04 -0.56223180D-04  0.75203045D-04
  0.56756860D-04 -0.15327524D-03 -0.96383587D-04 -0.15268780D-04 -0.22062564D-03
 -0.13873532D-03 -0.21978006D-04 -0.58996248D-04 -0.37098424D-04 -0.58770136D-05
  0.52855587D-05  0.51119623D-05  0.15931753D-05  0.37164291D-05 -0.49710242D-05
 -0.37517061D-05  0.69186702D-05  0.43506455D-05  0.68921534D-06  0.69203615D-07
  0.43517090D-07  0.68938382D-08 -0.21746007D-05 -0.13674473D-05 -0.21662662D-06
  0.14652516D-02  0.14171276D-02  0.44165677D-03  0.72854119D-03 -0.97448270D-03
 -0.73545663D-03  0.75117940D-03  0.47236177D-03  0.74830040D-04  0.37787755D-02
  0.23761954D-02  0.37642928D-03  0.12973673D-02  0.81581934D-03  0.12923949D-03
 -0.49648448D-04 -0.48017818D-04 -0.14965056D-04  0.45462025D-05  0.43968892D-05
  0.13703183D-05 -0.77351517D-06 -0.74811019D-06 -0.23315327D-06  0.94287595D-07
  0.91190857D-07  0.28420207D-07  0.95934949D-05  0.92784106D-05  0.28916753D-05
 -0.32277702D-05 -0.31217588D-05 -0.97291588D-06 -0.35450005D-05 -0.34285702D-05
 -0.10685356D-05 -0.55280205D-04 -0.53464607D-04 -0.16662583D-04 -0.16190113D-02
 -0.15658372D-02 -0.48800307D-03
MO    2     MO 0.0        OCC NO =    2.0000000  ORB. ENERGY =  -19.376281
 -0.16848330D-02 -0.16294972D-02 -0.50784309D-03  0.53734596D-05 -0.71874363D-05
 -0.54244654D-05  0.21933545D-04  0.13792402D-04  0.21849482D-05 -0.20887611D-04
 -0.13134690D-04 -0.20807556D-05 -0.50486108D-05 -0.31747019D-05 -0.50292612D-06
 -0.46526710D-02 -0.44998608D-02 -0.14024101D-02 -0.60131842D-04  0.80431196D-04
  0.60702624D-04 -0.57541097D-03 -0.36183386D-03 -0.57320563D-04  0.16192532D-03
  0.10182298D-03  0.16130471D-04  0.64127514D-03  0.40325102D-03  0.63881737D-04
  0.42267624D+01  0.40879406D+01  0.12740325D+01 -0.64209006D-02  0.85884732D-02
  0.64818488D-02  0.48633725D-02  0.30582191D-02  0.48447329D-03 -0.45344651D-02
 -0.28513933D-02 -0.45170861D-03 -0.70505239D-02 -0.44335586D-02 -0.70235018D-03
 -0.14725131D-05 -0.14241505D-05 -0.44384552D-06  0.77168001D-05 -0.10321844D-04
 -0.77900493D-05 -0.78670558D-04 -0.49470158D-04 -0.78369042D-05  0.66727918D-04
  0.41960305D-04  0.66472174D-05  0.20699465D-04  0.13016379D-04  0.20620131D-05
 -0.14687922D-04 -0.14205519D-04 -0.44272397D-05 -0.36540780D-05  0.48876246D-05
  0.36887632D-05 -0.29817948D-04 -0.18750326D-04 -0.29703666D-05 -0.12827157D-04
 -0.80660606D-05 -0.12777995D-05 -0.21660808D-05 -0.13620897D-05 -0.21577789D-06
 -0.45147953D-04 -0.43665135D-04 -0.13608515D-04 -0.13953978D-04  0.18664573D-04
  0.14086431D-04 -0.75239903D-04 -0.47312870D-04 -0.74951535D-05  0.34555718D-03
  0.21729563D-03  0.34423278D-04  0.23116795D-03  0.14536461D-03  0.23028196D-04
 -0.18387757D-04 -0.17783838D-04 -0.55424454D-05 -0.53160879D-05  0.71106971D-05
  0.53665492D-05 -0.37497887D-04 -0.23579678D-04 -0.37354171D-05 -0.20706343D-05
 -0.13020704D-05 -0.20626983D-06 -0.32596428D-05 -0.20497509D-05 -0.32471497D-06
  0.16344003D-02  0.15807208D-02  0.49264163D-03  0.11924413D-02 -0.15949865D-02
 -0.12037601D-02  0.30142135D-02  0.18954183D-02  0.30026611D-03 -0.26964817D-02
 -0.16956201D-02 -0.26861471D-03 -0.43040024D-02 -0.27064722D-02 -0.42875067D-03
  0.76239145D-05  0.73735182D-05  0.22980035D-05  0.29827690D-05  0.28848044D-05
  0.89906751D-06 -0.41187703D-05 -0.39834953D-05 -0.12414815D-05  0.26590560D-05
  0.25717232D-05  0.80149379D-06 -0.15811384D-05 -0.15292082D-05 -0.47658740D-06
 -0.13768906D-04 -0.13316687D-04 -0.41502296D-05  0.27481677D-05  0.26579081D-05
  0.82835387D-06 -0.33480714D-05 -0.32381088D-05 -0.10091771D-05 -0.34527818D-04
 -0.33393802D-04 -0.10407389D-04
MO    3     MO 0.0        OCC NO =    2.0000000  ORB. ENERGY =  -19.368866
  0.42266465D+01  0.40878285D+01  0.12739976D+01 -0.62995601D-02  0.84261706D-02
  0.63593566D-02 -0.15452238D-02 -0.97167819D-03 -0.15393015D-03  0.41585246D-02
  0.26149919D-02  0.41425864D-03 -0.51690648D-02 -0.32504467D-02 -0.51492536D-03
 -0.97647855D-03 -0.94440754D-03 -0.29433058D-03 -0.14119814D-04  0.18886392D-04
  0.14253842D-04  0.55562117D-04  0.34938950D-04  0.55349167D-05 -0.29934728D-05
 -0.18823761D-05 -0.29819999D-06 -0.48176055D-04 -0.30294396D-04 -0.47991413D-05
  0.17031417D-02  0.16472045D-02  0.51336169D-03  0.31503501D-05 -0.42138478D-05
 -0.31802538D-05 -0.13435141D-04 -0.84483773D-05 -0.13383649D-05  0.88483960D-05
  0.55641089D-05  0.88144832D-06  0.18985769D-04  0.11938761D-04  0.18913003D-05
  0.47719376D-05  0.46152103D-05  0.14383595D-05 -0.49351305D-05  0.66011358D-05
  0.49819757D-05 -0.89840488D-04 -0.56494110D-04 -0.89496162D-05  0.11304963D-04
  0.71088641D-05  0.11261635D-05 -0.44089758D-04 -0.27724823D-04 -0.43920778D-05
  0.15263958D-02  0.14762636D-02  0.46008688D-03  0.70205490D-03 -0.93905515D-03
 -0.70871893D-03  0.17936847D-04  0.11279171D-04  0.17868101D-05  0.36753450D-02
  0.23111556D-02  0.36612587D-03 -0.16715573D-03 -0.10511201D-03 -0.16651508D-04
 -0.58236090D-04 -0.56323410D-04 -0.17553547D-04 -0.35469587D-04  0.47443438D-04
  0.35806270D-04  0.86480021D-04  0.54380958D-04  0.86148574D-05 -0.33938395D-03
 -0.21341373D-03 -0.33808321D-04  0.46735384D-04  0.29388463D-04  0.46556264D-05
 -0.69441826D-04 -0.67161111D-04 -0.20931185D-04 -0.66676496D-04  0.89185201D-04
  0.67309401D-04 -0.51713342D-04 -0.32518737D-04 -0.51515143D-05 -0.19989890D-03
 -0.12570179D-03 -0.19913276D-04 -0.11093552D-03 -0.69759230D-04 -0.11051034D-04
 -0.69014080D-06 -0.66747414D-06 -0.20802253D-06  0.27590513D-05 -0.36904541D-05
 -0.27852407D-05 -0.16975045D-04 -0.10674364D-04 -0.16909986D-05  0.31599437D-04
  0.19870574D-04  0.31478328D-05  0.42508861D-04  0.26730713D-04  0.42345940D-05
  0.58646979D-04  0.56720805D-04  0.17677397D-04  0.87606897D-04  0.84729577D-04
  0.26406508D-04 -0.22999518D-04 -0.22244132D-04 -0.69325245D-05 -0.16098065D-04
 -0.15569348D-04 -0.48522856D-05 -0.35389064D-04 -0.34226762D-04 -0.10666987D-04
 -0.59845373D-05 -0.57879840D-05 -0.18038618D-05 -0.11844366D-04 -0.11455355D-04
 -0.35701338D-05 -0.16458086D-02 -0.15917544D-02 -0.49608033D-03 -0.18960615D-06
 -0.18337882D-06 -0.57151168D-07
MO    4     MO 0.0        OCC NO =    2.0000000  ORB. ENERGY =  -14.554050
  0.11739629D-04  0.11354058D-04  0.35385639D-05  0.81047391D-07 -0.10840743D-06
 -0.81816706D-07  0.64018277D-04  0.40256411D-04  0.63772918D-05 -0.49529345D-04
 -0.31145381D-04 -0.49339517D-05 -0.73138898D-05 -0.45991701D-05 -0.72858582D-06
  0.49143856D-04  0.47529798D-04  0.14812962D-04  0.13261138D-04 -0.17737844D-04
 -0.13387015D-04 -0.87969858D-04 -0.55317807D-04 -0.87632700D-05 -0.61578231D-04
 -0.38722044D-04 -0.61342223D-05  0.63666049D-04  0.40034920D-04  0.63422040D-05
 -0.88640653D-05 -0.85729380D-05 -0.26718103D-05  0.28757983D-06 -0.38466125D-06
 -0.29030958D-06 -0.26418646D-04 -0.16612754D-04 -0.26317393D-05  0.43643332D-05
  0.27444098D-05  0.43476062D-06  0.13336702D-04  0.83864762D-05  0.13285587D-05
  0.34310342D+01  0.33183469D+01  0.10341838D+01 -0.62998109D-02  0.84265060D-02
  0.63596098D-02 -0.15603060D-02 -0.98116226D-03 -0.15543259D-03 -0.16006996D-02
 -0.10065629D-02 -0.15945647D-03 -0.57393337D-02 -0.36090470D-02 -0.57173368D-03
 -0.93925636D-06 -0.90840786D-06 -0.28311105D-06 -0.33331271D-04  0.44583268D-04
  0.33647657D-04 -0.10492097D-03 -0.65977119D-04 -0.10451884D-04  0.13403942D-03
  0.84287585D-04  0.13352570D-04 -0.29042547D-04 -0.18262733D-04 -0.28931238D-05
  0.14681169D-02  0.14198988D-02  0.44252043D-03  0.86949910D-03 -0.11630253D-02
 -0.87775253D-03 -0.64670833D-04 -0.40666755D-04 -0.64422973D-05 -0.40538379D-02
 -0.25491620D-02 -0.40383009D-03 -0.29619000D-03 -0.18625222D-03 -0.29505481D-04
 -0.42756299D-04 -0.41352031D-04 -0.12887622D-04 -0.34175799D-04  0.45712892D-04
  0.34500202D-04  0.21069853D-04  0.13249289D-04  0.20989100D-05  0.10169457D-03
  0.63948275D-04  0.10130481D-04  0.71331327D-04  0.44855052D-04  0.71057939D-05
 -0.25742287D-04 -0.24896820D-04 -0.77592512D-05 -0.49501035D-04  0.66211634D-04
  0.49970908D-04  0.51650030D-04  0.32478925D-04  0.51452073D-05  0.17973966D-03
  0.11302512D-03  0.17905078D-04 -0.10993038D-03 -0.69127175D-04 -0.10950906D-04
  0.11379372D-03  0.11005633D-03  0.34299752D-04  0.30614143D-04  0.29608666D-04
  0.92277279D-05 -0.14697187D-03 -0.14214479D-03 -0.44300323D-04 -0.76051444D-05
 -0.73553646D-05 -0.22923459D-05 -0.35764968D-05 -0.34590320D-05 -0.10780292D-05
 -0.19649799D-02 -0.19004430D-02 -0.59228507D-03 -0.19655656D-02 -0.19010095D-02
 -0.59246161D-03 -0.24823825D-04 -0.24008523D-04 -0.74824080D-05 -0.25463331D-05
 -0.24627025D-05 -0.76751681D-06
MO    5     MO 0.0        OCC NO =    2.0000000  ORB. ENERGY =  -10.482238
 -0.20867050D-06 -0.20181702D-06 -0.62897551D-07 -0.12119973D-04  0.16211442D-04
  0.12235017D-04  0.13258437D-03  0.83372612D-04  0.13207623D-04  0.61221273D-04
  0.38497580D-04  0.60986634D-05 -0.72332377D-04 -0.45484539D-04 -0.72055152D-05
  0.21755307D-02  0.21040786D-02  0.65574938D-03  0.11741923D-02 -0.15705771D-02
 -0.11853379D-02 -0.15121390D-02 -0.95087359D-03 -0.15063435D-03 -0.53020113D-02
 -0.33340470D-02 -0.52816906D-03 -0.12952492D-02 -0.81448748D-03 -0.12902850D-03
  0.16335845D-02  0.15799318D-02  0.49239574D-03  0.16076039D-02 -0.21503001D-02
 -0.16228636D-02 -0.21220343D-02 -0.13343921D-02 -0.21139013D-03  0.20489843D-02
  0.12884563D-02  0.20411313D-03  0.31167244D-02  0.19598799D-02  0.31047791D-03
 -0.16672330D-04 -0.16124752D-04 -0.50253809D-05 -0.73657621D-04  0.98523019D-04
  0.74356792D-04  0.44093604D-04  0.27727242D-04  0.43924609D-05 -0.45240186D-04
 -0.28448243D-04 -0.45066797D-05 -0.25416830D-03 -0.15982785D-03 -0.25319416D-04
 -0.24267924D-02 -0.23470880D-02 -0.73148480D-03  0.48391297D-06 -0.64727269D-06
 -0.48850636D-06  0.16481277D-03  0.10363869D-03  0.16418110D-04  0.16362318D-03
  0.10289064D-03  0.16299607D-04 -0.17302119D-03 -0.10880037D-03 -0.17235806D-04
 -0.16266944D-01 -0.15732680D-01 -0.49031891D-02  0.98533735D-03 -0.13179683D-02
 -0.99469034D-03  0.30854874D-02  0.19402373D-02  0.30736618D-03  0.12659017D-02
  0.79603298D-03  0.12610500D-03 -0.22630325D-02 -0.14230555D-02 -0.22543591D-03
 -0.96885928D-05 -0.93703851D-05 -0.29203398D-05 -0.37237613D-04  0.49808316D-04
  0.37591079D-04  0.77737295D-04  0.48883297D-04  0.77439356D-05 -0.60775762D-04
 -0.38217430D-04 -0.60542830D-05  0.12603010D-03  0.79251110D-04  0.12554707D-04
  0.26861770D+01  0.25979534D+01  0.80966860D+00 -0.55224313D-02  0.73866980D-02
  0.55748512D-02 -0.30483119D-03 -0.19168603D-03 -0.30366288D-04  0.13993159D-03
  0.87992736D-04  0.13939528D-04  0.35490966D-03  0.22317672D-03  0.35354942D-04
 -0.21729500D-04 -0.21015826D-04 -0.65497151D-05 -0.48104271D-04 -0.46524356D-04
 -0.14499610D-04 -0.65690303D-05 -0.63532801D-05 -0.19800399D-05 -0.20099300D-04
 -0.19439168D-04 -0.60583396D-05 -0.16066037D-03 -0.15538371D-03 -0.48426317D-04
 -0.11902132D-03 -0.11511224D-03 -0.35875458D-04 -0.39654948D-04 -0.38352539D-04
 -0.11952811D-04 -0.18751380D-04 -0.18135519D-04 -0.56520490D-05 -0.43716267D-03
 -0.42280470D-03 -0.13176976D-03
MO    6     MO 0.0        OCC NO =    2.0000000  ORB. ENERGY =  -10.430143
  0.24311588D-02  0.23513110D-02  0.73280092D-03  0.11882938D-02 -0.15894390D-02
 -0.11995733D-02 -0.23784754D-03 -0.14956491D-03 -0.23693595D-04 -0.59543016D-02
 -0.37442246D-02 -0.59314808D-03 -0.50425196D-03 -0.31708717D-03 -0.50231934D-04
 -0.40621269D-04 -0.39287122D-04 -0.12244080D-04 -0.10733167D-04  0.14356479D-04
  0.10835049D-04  0.34290368D-04  0.21562703D-04  0.34158945D-05  0.66614143D-04
  0.41888761D-04  0.66358835D-05 -0.27765195D-05 -0.17459500D-05 -0.27658781D-06
 -0.20480589D-04 -0.19807934D-04 -0.61732678D-05 -0.26196433D-05  0.35039846D-05
  0.26445095D-05  0.36552347D-04  0.22985096D-04  0.36412254D-05 -0.76870171D-04
 -0.48338026D-04 -0.76575555D-05  0.27655862D-04  0.17390748D-04  0.27549867D-05
 -0.18411393D-03 -0.17806698D-03 -0.55495699D-04 -0.14341649D-03  0.19183114D-03
  0.14477783D-03 -0.14338468D-03 -0.90164135D-04 -0.14283514D-04 -0.61295155D-03
 -0.38544038D-03 -0.61060232D-04 -0.89481974D-04 -0.56268667D-04 -0.89139022D-05
  0.26705373D+01  0.25828274D+01  0.80495448D+00 -0.62570177D-02  0.83692666D-02
  0.63164103D-02 -0.10961727D-03 -0.68930280D-04 -0.10919714D-04  0.83608925D-03
  0.52575536D-03  0.83288482D-04 -0.16252105D-03 -0.10219760D-03 -0.16189816D-04
 -0.27087247D+00 -0.26197606D+00 -0.81646496D-01  0.16209381D-02 -0.21681357D-02
 -0.16363243D-02 -0.35641357D-02 -0.22412242D-02 -0.35504757D-03  0.16939240D-02
  0.10651849D-02  0.16874318D-03 -0.13376067D-02 -0.84112296D-03 -0.13324801D-03
 -0.13237715D-01 -0.12802941D-01 -0.39901176D-02  0.10668599D-02 -0.14270113D-02
 -0.10769867D-02  0.81956169D-03  0.51536239D-03  0.81642061D-04  0.13844832D-02
  0.87060019D-03  0.13791770D-03  0.40119984D-02  0.25228522D-02  0.39966218D-03
  0.71307851D-03  0.68965849D-03  0.21493643D-03 -0.97803923D-04  0.13082065D-03
  0.98732294D-04  0.26977676D-03  0.16964286D-03  0.26874280D-04  0.29150182D-03
  0.18330417D-03  0.29038460D-04 -0.32153164D-03 -0.20218772D-03 -0.32029932D-04
  0.25367659D-03  0.24534496D-03  0.76463307D-04 -0.22238884D-02 -0.21508481D-02
 -0.67032539D-03  0.35524517D-04  0.34357766D-04  0.10707815D-04  0.34208165D-04
  0.33084648D-04  0.10311040D-04  0.12284318D-04  0.11880857D-04  0.37027443D-05
 -0.29133562D-04 -0.28176712D-04 -0.87814505D-05  0.21948222D-04  0.21227365D-04
  0.66156424D-05 -0.32092108D-03 -0.31038090D-03 -0.96732169D-04  0.37489346D-05
  0.36258063D-05  0.11300055D-05
MO    7     MO 0.0        OCC NO =    2.0000000  ORB. ENERGY =  -10.426353
  0.16230098D-03  0.15697044D-03  0.48920831D-04  0.55055679D-04 -0.73641419D-04
 -0.55578277D-04 -0.13949221D-03 -0.87716442D-04 -0.13895758D-04 -0.38163878D-03
 -0.23998471D-03 -0.38017610D-04 -0.17687957D-03 -0.11122662D-03 -0.17620166D-04
 -0.43072001D-04 -0.41657364D-04 -0.12982781D-04 -0.62297091D-04  0.83327392D-04
  0.62888426D-04 -0.18727357D-04 -0.11776265D-04 -0.18655582D-05  0.17834800D-03
  0.11215001D-03  0.17766445D-04  0.29054215D-04  0.18270070D-04  0.28942860D-05
 -0.80487999D-04 -0.77844489D-04 -0.24260727D-04 -0.25231439D-04  0.33749088D-04
  0.25470940D-04  0.34327571D-03  0.21586098D-03  0.34196005D-04  0.35786235D-03
  0.22503345D-03  0.35649079D-04 -0.15552013D-03 -0.97795232D-04 -0.15492408D-04
  0.22377079D-02  0.21642137D-02  0.67449088D-03  0.10581974D-02 -0.14154245D-02
 -0.10682420D-02  0.11868321D-03  0.74631190D-04  0.11822834D-04  0.51466822D-02
  0.32363719D-02  0.51269568D-03  0.32295981D-03  0.20308580D-03  0.32172202D-04
  0.27441733D+00  0.26540449D+00  0.82714987D-01  0.35238250D-03 -0.47134006D-03
 -0.35572737D-03  0.36485740D-02  0.22943213D-02  0.36345904D-03 -0.15148304D-02
 -0.95256598D-03 -0.15090245D-03  0.13208603D-02  0.83059240D-03  0.13157979D-03
  0.26706367D+01  0.25829236D+01  0.80498445D+00 -0.61661325D-02  0.82477003D-02
  0.62246625D-02 -0.67728947D-03 -0.42589779D-03 -0.67469366D-04 -0.19631518D-03
 -0.12344825D-03 -0.19556277D-04 -0.28433026D-03 -0.17879450D-03 -0.28324052D-04
 -0.27335386D-02 -0.26437595D-02 -0.82394437D-03  0.88029489D-04 -0.11774655D-03
 -0.88865080D-04  0.22377718D-03  0.14071710D-03  0.22291952D-04  0.10287807D-03
  0.64692490D-04  0.10248377D-04  0.40292377D-03  0.25336928D-03  0.40137951D-04
  0.19963866D-01  0.19308182D-01  0.60175169D-02  0.10005339D-02 -0.13382950D-02
 -0.10100312D-02 -0.33218771D-02 -0.20888854D-02 -0.33091455D-03 -0.16118074D-02
 -0.10135477D-02 -0.16056299D-03  0.23517764D-02  0.14788601D-02  0.23427629D-03
 -0.22316161D-02 -0.21583219D-02 -0.67265467D-03 -0.21257601D-03 -0.20559426D-03
 -0.64074751D-04 -0.34200769D-04 -0.33077495D-04 -0.10308810D-04 -0.36362196D-04
 -0.35167933D-04 -0.10960309D-04  0.32928007D-05  0.31846535D-05  0.99251739D-06
 -0.13309250D-03 -0.12872127D-03 -0.40116797D-04 -0.13211692D-03 -0.12777773D-03
 -0.39822737D-04 -0.70956107D-04 -0.68625658D-04 -0.21387620D-04 -0.38029747D-04
 -0.36780715D-04 -0.11462942D-04
MO    8     MO 0.0        OCC NO =    2.0000000  ORB. ENERGY =  -10.365707
 -0.47227298D-04 -0.45676186D-04 -0.14235272D-04 -0.66602473D-04  0.89086188D-04
  0.67234675D-04 -0.46831973D-04 -0.29449202D-04 -0.46652483D-05  0.20987713D-03
  0.13197637D-03  0.20907275D-04 -0.13606064D-03 -0.85558582D-04 -0.13553917D-04
  0.73306265D-05  0.70898628D-05  0.22096006D-05  0.49865476D-05 -0.66699103D-05
 -0.50338808D-05  0.19792044D-04  0.12445768D-04  0.19716188D-05 -0.30604741D-04
 -0.19245083D-04 -0.30487444D-05  0.60429900D-06  0.37999942D-06  0.60198293D-07
 -0.41455196D-04 -0.40093661D-04 -0.12495443D-04 -0.11977621D-04  0.16021035D-04
  0.12091314D-04  0.76511805D-04  0.48112676D-04  0.76218563D-05 -0.42257603D-05
 -0.26572715D-05 -0.42095645D-06  0.22711893D-04  0.14281848D-04  0.22624846D-05
 -0.56215272D-04 -0.54368963D-04 -0.16944431D-04 -0.23243313D-04  0.31089809D-04
  0.23463942D-04  0.58789963D-04  0.36968706D-04  0.58564642D-05  0.20458391D-04
  0.12864786D-04  0.20379982D-05  0.59939471D-04  0.37691548D-04  0.59709744D-05
  0.16997830D-01  0.16439561D-01  0.51234932D-02  0.10090738D-02 -0.13497178D-02
 -0.10186521D-02 -0.86676997D-03 -0.54504822D-03 -0.86344795D-04 -0.12656309D-02
 -0.79586267D-03 -0.12607802D-03 -0.40699581D-02 -0.25592988D-02 -0.40543594D-03
  0.15502016D-02  0.14992875D-02  0.46726242D-03 -0.17949566D-04  0.24008995D-04
  0.18119947D-04  0.23431789D-04  0.14734538D-04  0.23341984D-05 -0.60742143D-04
 -0.38196289D-04 -0.60509340D-05 -0.10764239D-03 -0.67688423D-04 -0.10722983D-04
  0.26839958D+01  0.25958439D+01  0.80901117D+00 -0.66349739D-02  0.88748136D-02
  0.66979543D-02 -0.16666198D-04 -0.10480152D-04 -0.16602322D-05  0.26475584D-04
  0.16648558D-04  0.26374113D-05  0.15200420D-03  0.95584323D-04  0.15142163D-04
  0.34354550D-05  0.33226225D-05  0.10355163D-05 -0.65601801D-05  0.87747709D-05
  0.66224505D-05 -0.50771414D-05 -0.31926428D-05 -0.50576825D-06 -0.52621306D-04
 -0.33089689D-04 -0.52419627D-05 -0.18893144D-04 -0.11880516D-04 -0.18820733D-05
 -0.39256464D-04 -0.37967143D-04 -0.11832700D-04  0.19574889D-04  0.18931981D-04
  0.59002715D-05 -0.22575123D-02 -0.21833676D-02 -0.68046032D-03 -0.22603918D-02
 -0.21861526D-02 -0.68132827D-03 -0.22616215D-02 -0.21873419D-02 -0.68169892D-03
  0.94456831D-07  0.91354534D-07  0.28471218D-07  0.78716863D-05  0.76131523D-05
  0.23726870D-05 -0.40477427D-04 -0.39148005D-04 -0.12200723D-04  0.22647690D-05
  0.21903860D-05  0.68264763D-06
MO    9     MO 0.0        OCC NO =    2.0000000  ORB. ENERGY =   -1.141272
 -0.48718486D-01 -0.47118399D-01 -0.14684747D-01 -0.95964306D-02  0.12836001D-01
  0.96875216D-02 -0.77386760D-02 -0.48662871D-02 -0.77090164D-03  0.10483416D-01
  0.65922536D-02  0.10443237D-02 -0.81554384D-02 -0.51283585D-02 -0.81241815D-03
 -0.66808385D+00 -0.64614161D+00 -0.20137412D+00 -0.13311178D+00  0.17804776D+00
  0.13437530D+00 -0.60876652D-01 -0.38280873D-01 -0.60643334D-02  0.13822585D+00
  0.86920126D-01  0.13769608D-01  0.13697834D+00  0.86135659D-01  0.13645336D-01
 -0.57110076D+00 -0.55234379D+00 -0.17214143D+00 -0.10993368D+00  0.14704517D+00
  0.11097719D+00  0.10156039D+00  0.63863902D-01  0.10117115D-01 -0.12008895D+00
 -0.75515154D-01 -0.11962869D-01 -0.16267513D+00 -0.10229448D+00 -0.16205165D-01
 -0.28012723D-01 -0.27092686D-01 -0.84436068D-02 -0.48513322D-02  0.64890487D-02
  0.48973819D-02 -0.40729172D-02 -0.25611596D-02 -0.40573071D-03 -0.83621675D-02
 -0.52583553D-02 -0.83301183D-03 -0.29362934D-02 -0.18464201D-02 -0.29250396D-03
 -0.22155536D-01 -0.21427870D-01 -0.66781310D-02 -0.31502815D-02  0.42137561D-02
  0.31801846D-02 -0.47047317D-02 -0.29584616D-02 -0.46867002D-03 -0.30463245D-02
 -0.19156106D-02 -0.30346490D-03 -0.75104135D-03 -0.47227495D-03 -0.74816287D-04
 -0.60679714D-01 -0.58686778D-01 -0.18290105D-01 -0.89778924D-02  0.12008656D-01
  0.90631121D-02 -0.16758619D-01 -0.10538269D-01 -0.16694389D-02 -0.98029869D-02
 -0.61643812D-02 -0.97654155D-03  0.10937692D-01  0.68779143D-02  0.10895772D-02
 -0.58205107D-02 -0.56293446D-02 -0.17544208D-02 -0.78934902D-03  0.10558181D-02
  0.79684166D-03 -0.13376162D-02 -0.84112894D-03 -0.13324896D-03 -0.63707596D-03
 -0.40061046D-03 -0.63463427D-04 -0.13922280D-02 -0.87547035D-03 -0.13868921D-03
 -0.35284405D+00 -0.34125540D+00 -0.10635440D+00 -0.49667751D-01  0.66434630D-01
  0.50139206D-01 -0.60355490D-01 -0.37953151D-01 -0.60124168D-02 -0.25020100D-01
 -0.15733310D-01 -0.24924206D-02  0.42973857D-01  0.27023115D-01  0.42809154D-02
  0.24945523D-02  0.24126224D-02  0.75190903D-03  0.59105159D-03  0.57163936D-03
  0.17815502D-03  0.27806054D-03  0.26892805D-03  0.83813127D-04  0.13797336D-03
  0.13344183D-03  0.41587989D-04  0.61435625D-03  0.59417862D-03  0.18517952D-03
  0.13225934D-02  0.12791547D-02  0.39865666D-03  0.74753242D-03  0.72298082D-03
  0.22532154D-03  0.24166688D-02  0.23372968D-02  0.72843333D-03  0.25717812D-01
  0.24873148D-01  0.77518737D-02
MO   10     MO 0.0        OCC NO =    2.0000000  ORB. ENERGY =   -1.059837
 -0.87622618D+00 -0.84744781D+00 -0.26411247D+00 -0.17668109D+00  0.23632524D+00
  0.17835818D+00 -0.51704873D-01 -0.32513411D-01 -0.51506706D-02  0.15501944D+00
  0.97480384D-01  0.15442531D-01 -0.16670557D+00 -0.10482894D+00 -0.16606665D-01
 -0.15673314D+00 -0.15158547D+00 -0.47242570D-01 -0.32164425D-01  0.43022517D-01
  0.32469735D-01 -0.51189257D-02 -0.32189178D-02 -0.50993067D-03  0.11976113D-01
  0.75309009D-02  0.11930212D-02  0.21058889D-01  0.13242394D-01  0.20978178D-02
  0.26380394D+00  0.25513969D+00  0.79515896D-01  0.52154041D-01 -0.69760244D-01
 -0.52649097D-01 -0.41458096D-01 -0.26069963D-01 -0.41299202D-02  0.39547655D-01
  0.24868627D-01  0.39396083D-02  0.63118728D-01  0.39690750D-01  0.62876816D-02
 -0.23025988D-01 -0.22269733D-01 -0.69405031D-02 -0.41302216D-02  0.55245051D-02
  0.41694264D-02  0.16465842D-02  0.10354163D-02  0.16402734D-03 -0.67271698D-02
 -0.42302249D-02 -0.67013870D-03 -0.53638362D-02 -0.33729241D-02 -0.53432785D-03
 -0.23117730D+00 -0.22358462D+00 -0.69681561D-01 -0.35441512D-01  0.47405886D-01
  0.35777929D-01 -0.56760305D-02 -0.35692403D-02 -0.56542763D-03 -0.82481606D-01
 -0.51866647D-01 -0.82165483D-02 -0.65045208D-02 -0.40902172D-02 -0.64795913D-03
 -0.58701306D-01 -0.56773348D-01 -0.17693773D-01 -0.83051022D-02  0.11108745D-01
  0.83839357D-02  0.16741155D-01  0.10527288D-01  0.16676992D-02 -0.12421164D-01
 -0.78107613D-02 -0.12373558D-02  0.15881603D-02  0.99867780D-03  0.15820734D-03
 -0.50510474D-01 -0.48851532D-01 -0.15224889D-01 -0.70646245D-02  0.94495060D-02
  0.71316831D-02 -0.31916602D-02 -0.20070016D-02 -0.31794277D-03 -0.10811498D-01
 -0.67985600D-02 -0.10770061D-02 -0.15098940D-01 -0.94946184D-02 -0.15041071D-02
  0.46875906D-01  0.45336335D-01  0.14129355D-01  0.62863958D-02 -0.84085623D-02
 -0.63460674D-02  0.28124115D-01  0.17685198D-01  0.28016325D-02 -0.37415175D-01
 -0.23527666D-01 -0.37271776D-02 -0.41556104D-01 -0.26131593D-01 -0.41396834D-02
  0.29737228D-02  0.28760552D-02  0.89634079D-03  0.79006644D-02  0.76411787D-02
  0.23814216D-02  0.14990061D-02  0.14497735D-02  0.45183106D-03  0.20900470D-02
  0.20214025D-02  0.62998286D-03  0.23308368D-02  0.22542838D-02  0.70256181D-03
  0.57870665D-03  0.55969988D-03  0.17443401D-03  0.10705086D-02  0.10353493D-02
  0.32267315D-03  0.38690339D-01  0.37419611D-01  0.11662058D-01  0.61094112D-02
  0.59087565D-02  0.18415013D-02
MO   11     MO 0.0        OCC NO =    2.0000000  ORB. ENERGY =   -1.052571
  0.27632127D+00  0.26724590D+00  0.83288876D-01  0.55824197D-01 -0.74669373D-01
 -0.56354090D-01  0.11559142D-01  0.72686989D-02  0.11514840D-02 -0.49634962D-01
 -0.31211796D-01 -0.49444729D-02  0.52714991D-01  0.33148601D-01  0.52512953D-02
 -0.67804706D+00 -0.65577759D+00 -0.20437723D+00 -0.13918184D+00  0.18616696D+00