 opt tyrosine b3lyp
GAUSSIAN             48 MOL ORBITALS    228 PRIMITIVES       24 NUCLEI
  O    1    (CENTRE  1)  -3.42063471 -2.74831851 -2.89851794  CHARGE =  8.0
  O    2    (CENTRE  2)   8.16288806 -0.93345445 -0.75952159  CHARGE =  8.0
  O    3    (CENTRE  3)  -4.78899294 -3.10575192  1.31222625  CHARGE =  8.0
  N    4    (CENTRE  4)  -6.72790424  2.17187712 -0.18813904  CHARGE =  7.0
  C    5    (CENTRE  5)  -2.08701508  2.22696770  1.47639836  CHARGE =  6.0
  C    6    (CENTRE  6)  -4.03432567  1.22829332 -0.56751533  CHARGE =  6.0
  C    7    (CENTRE  7)   0.64332786  1.37670787  0.94085210  CHARGE =  6.0
  C    8    (CENTRE  8)   1.65212447 -0.80944099  2.09856496  CHARGE =  6.0
  C    9    (CENTRE  9)   2.18895303  2.73711186 -0.77302298  CHARGE =  6.0
  C   10    (CENTRE 10)  -4.14571586 -1.74483355 -0.51393832  CHARGE =  6.0
  C   11    (CENTRE 11)   4.12578019 -1.62460455  1.58006605  CHARGE =  6.0
  C   12    (CENTRE 12)   4.66120329  1.95720370 -1.31690648  CHARGE =  6.0
  C   13    (CENTRE 13)   5.65763553 -0.24502186 -0.13901477  CHARGE =  6.0
  H   14    (CENTRE 14)  -2.69090038  1.53254789  3.34947362  CHARGE =  1.0
  H   15    (CENTRE 15)  -2.18796647  4.31298317  1.49344407  CHARGE =  1.0
  H   16    (CENTRE 16)  -3.40734084  1.82976082 -2.47247054  CHARGE =  1.0
  H   17    (CENTRE 17)   0.48646940 -1.89020136  3.43506200  CHARGE =  1.0
  H   18    (CENTRE 18)   1.44059130  4.44419338 -1.68829246  CHARGE =  1.0
  H   19    (CENTRE 19)  -6.54033131  4.16130888  0.02004981  CHARGE =  1.0
  H   20    (CENTRE 20)  -7.19630731  1.59259054  1.67794321  CHARGE =  1.0
  H   21    (CENTRE 21)   4.88554502 -3.32297584  2.50141065  CHARGE =  1.0
  H   22    (CENTRE 22)   5.85343641  3.02043886 -2.63923052  CHARGE =  1.0
  H   23    (CENTRE 23)  -3.59807821 -4.66416225 -2.60270389  CHARGE =  1.0
  H   24    (CENTRE 24)   8.45232221 -2.53372597  0.29589192  CHARGE =  1.0
CENTRE ASSIGNMENTS    1  1  1  1  1  1  1  1  1  1  1  1  1  1  1  2  2  2  2  2
CENTRE ASSIGNMENTS    2  2  2  2  2  2  2  2  2  2  3  3  3  3  3  3  3  3  3  3
CENTRE ASSIGNMENTS    3  3  3  3  3  4  4  4  4  4  4  4  4  4  4  4  4  4  4  4
CENTRE ASSIGNMENTS    5  5  5  5  5  5  5  5  5  5  5  5  5  5  5  6  6  6  6  6
CENTRE ASSIGNMENTS    6  6  6  6  6  6  6  6  6  6  7  7  7  7  7  7  7  7  7  7
CENTRE ASSIGNMENTS    7  7  7  7  7  8  8  8  8  8  8  8  8  8  8  8  8  8  8  8
CENTRE ASSIGNMENTS    9  9  9  9  9  9  9  9  9  9  9  9  9  9  9 10 10 10 10 10
CENTRE ASSIGNMENTS   10 10 10 10 10 10 10 10 10 10 11 11 11 11 11 11 11 11 11 11
CENTRE ASSIGNMENTS   11 11 11 11 11 12 12 12 12 12 12 12 12 12 12 12 12 12 12 12
CENTRE ASSIGNMENTS   13 13 13 13 13 13 13 13 13 13 13 13 13 13 13 14 14 14 15 15
CENTRE ASSIGNMENTS   15 16 16 16 17 17 17 18 18 18 19 19 19 20 20 20 21 21 21 22
CENTRE ASSIGNMENTS   22 22 23 23 23 24 24 24
TYPE ASSIGNMENTS      1  1  1  1  1  1  2  2  2  3  3  3  4  4  4  1  1  1  1  1
TYPE ASSIGNMENTS      1  2  2  2  3  3  3  4  4  4  1  1  1  1  1  1  2  2  2  3
TYPE ASSIGNMENTS      3  3  4  4  4  1  1  1  1  1  1  2  2  2  3  3  3  4  4  4
TYPE ASSIGNMENTS      1  1  1  1  1  1  2  2  2  3  3  3  4  4  4  1  1  1  1  1
TYPE ASSIGNMENTS      1  2  2  2  3  3  3  4  4  4  1  1  1  1  1  1  2  2  2  3
TYPE ASSIGNMENTS      3  3  4  4  4  1  1  1  1  1  1  2  2  2  3  3  3  4  4  4
TYPE ASSIGNMENTS      1  1  1  1  1  1  2  2  2  3  3  3  4  4  4  1  1  1  1  1
TYPE ASSIGNMENTS      1  2  2  2  3  3  3  4  4  4  1  1  1  1  1  1  2  2  2  3
TYPE ASSIGNMENTS      3  3  4  4  4  1  1  1  1  1  1  2  2  2  3  3  3  4  4  4
TYPE ASSIGNMENTS      1  1  1  1  1  1  2  2  2  3  3  3  4  4  4  1  1  1  1  1
TYPE ASSIGNMENTS      1  1  1  1  1  1  1  1  1  1  1  1  1  1  1  1  1  1  1  1
TYPE ASSIGNMENTS      1  1  1  1  1  1  1  1
EXPONENTS  0.1307093D+03 0.2380887D+02 0.6443608D+01 0.5033151D+01 0.1169596D+01
EXPONENTS  0.3803890D+00 0.5033151D+01 0.1169596D+01 0.3803890D+00 0.5033151D+01
EXPONENTS  0.1169596D+01 0.3803890D+00 0.5033151D+01 0.1169596D+01 0.3803890D+00
EXPONENTS  0.1307093D+03 0.2380887D+02 0.6443608D+01 0.5033151D+01 0.1169596D+01
EXPONENTS  0.3803890D+00 0.5033151D+01 0.1169596D+01 0.3803890D+00 0.5033151D+01
EXPONENTS  0.1169596D+01 0.3803890D+00 0.5033151D+01 0.1169596D+01 0.3803890D+00
EXPONENTS  0.1307093D+03 0.2380887D+02 0.6443608D+01 0.5033151D+01 0.1169596D+01
EXPONENTS  0.3803890D+00 0.5033151D+01 0.1169596D+01 0.3803890D+00 0.5033151D+01
EXPONENTS  0.1169596D+01 0.3803890D+00 0.5033151D+01 0.1169596D+01 0.3803890D+00
EXPONENTS  0.9910617D+02 0.1805231D+02 0.4885660D+01 0.3780456D+01 0.8784966D+00
EXPONENTS  0.2857144D+00 0.3780456D+01 0.8784966D+00 0.2857144D+00 0.3780456D+01
EXPONENTS  0.8784966D+00 0.2857144D+00 0.3780456D+01 0.8784966D+00 0.2857144D+00
EXPONENTS  0.7161684D+02 0.1304510D+02 0.3530512D+01 0.2941249D+01 0.6834831D+00
EXPONENTS  0.2222899D+00 0.2941249D+01 0.6834831D+00 0.2222899D+00 0.2941249D+01
EXPONENTS  0.6834831D+00 0.2222899D+00 0.2941249D+01 0.6834831D+00 0.2222899D+00
EXPONENTS  0.7161684D+02 0.1304510D+02 0.3530512D+01 0.2941249D+01 0.6834831D+00
EXPONENTS  0.2222899D+00 0.2941249D+01 0.6834831D+00 0.2222899D+00 0.2941249D+01
EXPONENTS  0.6834831D+00 0.2222899D+00 0.2941249D+01 0.6834831D+00 0.2222899D+00
EXPONENTS  0.7161684D+02 0.1304510D+02 0.3530512D+01 0.2941249D+01 0.6834831D+00
EXPONENTS  0.2222899D+00 0.2941249D+01 0.6834831D+00 0.2222899D+00 0.2941249D+01
EXPONENTS  0.6834831D+00 0.2222899D+00 0.2941249D+01 0.6834831D+00 0.2222899D+00
EXPONENTS  0.7161684D+02 0.1304510D+02 0.3530512D+01 0.2941249D+01 0.6834831D+00
EXPONENTS  0.2222899D+00 0.2941249D+01 0.6834831D+00 0.2222899D+00 0.2941249D+01
EXPONENTS  0.6834831D+00 0.2222899D+00 0.2941249D+01 0.6834831D+00 0.2222899D+00
EXPONENTS  0.7161684D+02 0.1304510D+02 0.3530512D+01 0.2941249D+01 0.6834831D+00
EXPONENTS  0.2222899D+00 0.2941249D+01 0.6834831D+00 0.2222899D+00 0.2941249D+01
EXPONENTS  0.6834831D+00 0.2222899D+00 0.2941249D+01 0.6834831D+00 0.2222899D+00
EXPONENTS  0.7161684D+02 0.1304510D+02 0.3530512D+01 0.2941249D+01 0.6834831D+00
EXPONENTS  0.2222899D+00 0.2941249D+01 0.6834831D+00 0.2222899D+00 0.2941249D+01
EXPONENTS  0.6834831D+00 0.2222899D+00 0.2941249D+01 0.6834831D+00 0.2222899D+00
EXPONENTS  0.7161684D+02 0.1304510D+02 0.3530512D+01 0.2941249D+01 0.6834831D+00
EXPONENTS  0.2222899D+00 0.2941249D+01 0.6834831D+00 0.2222899D+00 0.2941249D+01
EXPONENTS  0.6834831D+00 0.2222899D+00 0.2941249D+01 0.6834831D+00 0.2222899D+00
EXPONENTS  0.7161684D+02 0.1304510D+02 0.3530512D+01 0.2941249D+01 0.6834831D+00
EXPONENTS  0.2222899D+00 0.2941249D+01 0.6834831D+00 0.2222899D+00 0.2941249D+01
EXPONENTS  0.6834831D+00 0.2222899D+00 0.2941249D+01 0.6834831D+00 0.2222899D+00
EXPONENTS  0.7161684D+02 0.1304510D+02 0.3530512D+01 0.2941249D+01 0.6834831D+00
EXPONENTS  0.2222899D+00 0.2941249D+01 0.6834831D+00 0.2222899D+00 0.2941249D+01
EXPONENTS  0.6834831D+00 0.2222899D+00 0.2941249D+01 0.6834831D+00 0.2222899D+00
EXPONENTS  0.3425251D+01 0.6239137D+00 0.1688554D+00 0.3425251D+01 0.6239137D+00
EXPONENTS  0.1688554D+00 0.3425251D+01 0.6239137D+00 0.1688554D+00 0.3425251D+01
EXPONENTS  0.6239137D+00 0.1688554D+00 0.3425251D+01 0.6239137D+00 0.1688554D+00
EXPONENTS  0.3425251D+01 0.6239137D+00 0.1688554D+00 0.3425251D+01 0.6239137D+00
EXPONENTS  0.1688554D+00 0.3425251D+01 0.6239137D+00 0.1688554D+00 0.3425251D+01
EXPONENTS  0.6239137D+00 0.1688554D+00 0.3425251D+01 0.6239137D+00 0.1688554D+00
EXPONENTS  0.3425251D+01 0.6239137D+00 0.1688554D+00
MO    1     MO 0.0        OCC NO =    2.0000000  ORB. ENERGY =  -18.939575
  0.51085180D-06  0.49407362D-06  0.15398117D-06 -0.10630029D-08  0.14218523D-08
  0.10730932D-08 -0.30422796D-07 -0.19130670D-07 -0.30306196D-08 -0.53561773D-08
 -0.33681080D-08 -0.53356489D-09 -0.18071609D-07 -0.11363912D-07 -0.18002347D-08
  0.42244032D+01  0.40856589D+01  0.12733214D+01 -0.68834974D-02  0.92072338D-02
  0.69488367D-02 -0.48706468D-02 -0.30627934D-02 -0.48519793D-03 -0.30014728D-02
 -0.18874066D-02 -0.29899692D-03  0.44232920D-02  0.27814847D-02  0.44063391D-03
  0.11503057D-05  0.11125256D-05  0.34672565D-06 -0.30156263D-08  0.40336439D-08
  0.30442512D-08  0.19342143D-06  0.12162859D-06  0.19268012D-07 -0.62830545D-07
 -0.39509533D-07 -0.62589738D-08  0.23787558D-06  0.14958255D-06  0.23696389D-07
 -0.11724562D-07 -0.11339486D-07 -0.35340223D-08 -0.15779255D-07  0.21106029D-07
  0.15929035D-07 -0.56764558D-07 -0.35695077D-07 -0.56547000D-08 -0.35095689D-07
 -0.22069111D-07 -0.34961179D-08 -0.36977536D-07 -0.23252467D-07 -0.36835814D-08
  0.33213505D-05  0.32122656D-05  0.10011229D-05  0.22499018D-05 -0.30094254D-05
 -0.22712582D-05 -0.82562917D-05 -0.51917778D-05 -0.82246483D-06  0.17851360D-05
  0.11225414D-05  0.17782942D-06  0.14332939D-05  0.90129364D-06  0.14278006D-06
  0.40777688D-07  0.39438404D-07  0.12291228D-07 -0.19201068D-07  0.25682979D-07
  0.19383327D-07  0.31358016D-06  0.19718762D-06  0.31237832D-07  0.21103841D-07
  0.13270661D-07  0.21022957D-08 -0.17434586D-07 -0.10963335D-07 -0.17367765D-08
  0.79661634D-05  0.77045264D-05  0.24011644D-05 -0.17345984D-05  0.23201656D-05
  0.17510636D-05 -0.34517003D-04 -0.21705218D-04 -0.34384712D-05  0.11297282D-04
  0.71040342D-05  0.11253984D-05  0.72122989D-05  0.45352871D-05  0.71846567D-06
 -0.45538245D-05 -0.44042608D-05 -0.13726157D-05 -0.22049504D-04  0.29492992D-04
  0.22258801D-04  0.64767276D-04  0.40727401D-04  0.64519046D-05 -0.67172425D-04
 -0.42239823D-04 -0.66914977D-05  0.20414377D-04  0.12837108D-04  0.20336136D-05
  0.13438537D-04  0.12997167D-04  0.40506494D-05 -0.63035730D-05  0.84315381D-05
  0.63634076D-05  0.21616964D-04  0.13593327D-04  0.21534114D-05  0.45580438D-04
  0.28662203D-04  0.45405744D-05 -0.43478141D-04 -0.27340222D-04 -0.43311504D-05
 -0.12199588D-06 -0.11798911D-06 -0.36772051D-07 -0.39187299D-07  0.52416178D-07
  0.39559272D-07  0.12012907D-06  0.75540382D-07  0.11966866D-07 -0.60924358D-08
 -0.38310871D-08 -0.60690856D-09  0.21615564D-06  0.13592447D-06  0.21532720D-07
 -0.84011005D-04 -0.81251787D-04 -0.25322633D-04 -0.17688634D-04  0.23659977D-04
  0.17856537D-04  0.56073258D-03  0.35260370D-03  0.55858349D-04 -0.28538226D-03
 -0.17945602D-03 -0.28428849D-04 -0.41528342D-04 -0.26114136D-04 -0.41369179D-05
 -0.79674923D-04 -0.77058117D-04 -0.24015649D-04 -0.56316442D-04  0.75327791D-04
  0.56851007D-04  0.43714383D-03  0.27488777D-03  0.43546841D-04 -0.58089728D-04
 -0.36528380D-04 -0.57867091D-05 -0.15401606D-03 -0.96849432D-04 -0.15342577D-04
  0.16314765D-02  0.15778930D-02  0.49176033D-03  0.80107669D-03 -0.10715048D-02
 -0.80868064D-03 -0.42143479D-02 -0.26500950D-02 -0.41981958D-03  0.10461720D-02
  0.65786104D-03  0.10421624D-03  0.11260699D-02  0.70810295D-03  0.11217540D-03
  0.56071899D-06  0.54230299D-06  0.16901216D-06  0.36639480D-06  0.35436110D-06
  0.11043888D-06  0.42920912D-07  0.41511238D-07  0.12937240D-07 -0.82910086D-05
 -0.80187026D-05 -0.24990793D-05 -0.59909133D-05 -0.57941505D-05 -0.18057836D-05
 -0.30969487D-07 -0.29952339D-07 -0.93348359D-08 -0.40873384D-07 -0.39530957D-07
 -0.12320073D-07  0.41966516D-04  0.40588187D-04  0.12649565D-04 -0.69601360D-04
 -0.67315405D-04 -0.20979271D-04  0.14356230D-09  0.13884721D-09  0.43272610D-10
 -0.17778754D-02 -0.17194837D-02 -0.53588797D-03
MO    2     MO 0.0        OCC NO =    2.0000000  ORB. ENERGY =  -18.931792
  0.42244493D+01  0.40857034D+01  0.12733353D+01 -0.68528538D-02  0.91662455D-02
  0.69179022D-02 -0.20548458D-02 -0.12921422D-02 -0.20469703D-03 -0.31304139D-02
 -0.19684882D-02 -0.31184161D-03  0.59814660D-02  0.37613063D-02  0.59585412D-03
 -0.50834236D-06 -0.49164660D-06 -0.15322477D-06  0.33595536D-09 -0.44936743D-09
 -0.33914431D-09  0.19121925D-08  0.12024380D-08  0.19048638D-09 -0.16781097D-07
 -0.10552404D-07 -0.16716781D-08 -0.11800852D-07 -0.74206922D-08 -0.11755623D-08
  0.38765292D-02  0.37492103D-02  0.11684651D-02 -0.51197291D-04  0.68480512D-04
  0.51683264D-04  0.20159179D-03  0.12676633D-03  0.20081916D-04 -0.84183186D-03
 -0.52936646D-03 -0.83860542D-04 -0.73726339D-03 -0.46361100D-03 -0.73443772D-04
 -0.77579729D-05 -0.75031736D-05 -0.23384115D-05 -0.27084288D-05  0.36227424D-05
  0.27341377D-05 -0.28371608D-05 -0.17840828D-05 -0.28262870D-06  0.20914310D-05
  0.13151480D-05  0.20834153D-06 -0.34843993D-05 -0.21910838D-05 -0.34710449D-06
 -0.15639824D-05 -0.15126157D-05 -0.47141625D-06 -0.50914787D-06  0.68102640D-06
  0.51398079D-06 -0.22284521D-05 -0.14013105D-05 -0.22199112D-06  0.17824915D-04
  0.11208785D-04  0.17756598D-05 -0.29194134D-05 -0.18358055D-05 -0.29082243D-06
 -0.90577400D-04 -0.87602518D-04 -0.27301878D-04 -0.68341392D-04  0.91412132D-04
  0.68990100D-04  0.93539211D-04  0.58819966D-04  0.93180709D-05 -0.16523470D-03
 -0.10390401D-03 -0.16460141D-04 -0.30984314D-03 -0.19483768D-03 -0.30865562D-04
 -0.11525024D-04 -0.11146501D-04 -0.34738775D-05 -0.31919060D-05  0.42694322D-05
  0.32222041D-05 -0.16345408D-04 -0.10278431D-04 -0.16282762D-05 -0.14943446D-04
 -0.93968396D-05 -0.14886173D-05 -0.78401185D-05 -0.49300769D-05 -0.78100702D-06
 -0.51443342D-05 -0.49753761D-05 -0.15506074D-05 -0.50374019D-06  0.67379320D-06
  0.50852178D-06 -0.82574113D-05 -0.51924818D-05 -0.82257636D-06 -0.65785396D-05
 -0.41367622D-05 -0.65533264D-06 -0.91722882D-05 -0.57677809D-05 -0.91371340D-06
 -0.92960782D-07 -0.89907622D-07 -0.28020279D-07  0.20091019D-07 -0.26873361D-07
 -0.20281727D-07  0.30742398D-07  0.19331645D-07  0.30624573D-08 -0.28143604D-06
 -0.17697454D-06 -0.28035740D-07  0.11818270D-05  0.74316455D-06  0.11772975D-06
  0.16048416D-02  0.15521329D-02  0.48373203D-03  0.77166459D-03 -0.10321637D-02
 -0.77898936D-03 -0.12121001D-02 -0.76220110D-03 -0.12074546D-03  0.14860145D-02
  0.93444577D-03  0.14803191D-03  0.39614317D-02  0.24910545D-02  0.39462489D-03
  0.18750165D-06  0.18134343D-06  0.56516828D-07 -0.12622604D-07  0.16883752D-07
  0.12742420D-07  0.90316744D-06  0.56793592D-06  0.89970592D-07  0.13012788D-05
  0.81827902D-06  0.12962914D-06  0.12881588D-05  0.81002884D-06  0.12832218D-06
  0.63461186D-08  0.61376896D-08  0.19128498D-08 -0.10878880D-07  0.14551381D-07
  0.10982144D-07  0.56909621D-07  0.35786297D-07  0.56691507D-08  0.80700893D-07
  0.50746887D-07  0.80391595D-08  0.12793811D-06  0.80450916D-07  0.12744777D-07
  0.19733943D-07  0.19085811D-07  0.59482136D-08  0.17934298D-07 -0.23988572D-07
 -0.18104533D-07  0.12890440D-07  0.81058545D-08  0.12841035D-08 -0.70715857D-08
 -0.44468028D-08 -0.70444828D-09 -0.10302397D-06 -0.64784235D-07 -0.10262911D-07
 -0.86470117D-05 -0.83630133D-05 -0.26063860D-05  0.42050196D-06  0.40669119D-06
  0.12674788D-06 -0.94141526D-04 -0.91049585D-04 -0.28376179D-04  0.27408043D-05
  0.26507866D-05  0.82613439D-06  0.11544503D-05  0.11165341D-05  0.34797491D-06
  0.33835522D-05  0.32724244D-05  0.10198718D-05 -0.12438196D-04 -0.12029682D-04
 -0.37491263D-05  0.18150598D-07  0.17554468D-07  0.54709610D-08 -0.20714744D-07
 -0.20034398D-07 -0.62438469D-08 -0.17545464D-02 -0.16969208D-02 -0.52885611D-03
 -0.26248453D-08 -0.25386361D-08 -0.79118200D-09
MO    3     MO 0.0        OCC NO =    2.0000000  ORB. ENERGY =  -18.867531
 -0.42161332D-02 -0.40776605D-02 -0.12708287D-02 -0.60822678D-04  0.81355246D-04
  0.61400018D-04 -0.20230457D-03 -0.12721454D-03 -0.20152921D-04 -0.76060826D-03
 -0.47829088D-03 -0.75769312D-04  0.53031135D-03  0.33347401D-03  0.52827886D-04
 -0.12674091D-05 -0.12257829D-05 -0.38202300D-06 -0.27141967D-07  0.36304574D-07
  0.27399603D-07 -0.97275953D-07 -0.61169730D-07 -0.96903129D-08 -0.31671269D-07
 -0.19915744D-07 -0.31549885D-08  0.47521318D-07  0.29882680D-07  0.47339186D-08
  0.42246684D+01  0.40859153D+01  0.12734013D+01 -0.68981826D-02  0.92268765D-02
  0.69636613D-02  0.26634101D-02  0.16748238D-02  0.26532022D-03  0.55746323D-02
  0.35054784D-02  0.55532667D-03 -0.75575353D-02 -0.47523810D-02 -0.75285700D-03
 -0.36406921D-04 -0.35211189D-04 -0.10973789D-04 -0.10278688D-04  0.13748575D-04
  0.10376255D-04 -0.42507538D-04 -0.26729881D-04 -0.42344622D-05 -0.12178240D-03
 -0.76580041D-04 -0.12131565D-04  0.26646404D-04  0.16755974D-04  0.26544278D-05
 -0.33834420D-04 -0.32723178D-04 -0.10198385D-04 -0.70750074D-05  0.94633939D-05
  0.71421646D-05  0.24449565D-04  0.15374542D-04  0.24355858D-05 -0.76290505D-04
 -0.47973517D-04 -0.75998110D-05  0.30376087D-04  0.19101299D-04  0.30259666D-05
 -0.42239539D-04 -0.40852243D-04 -0.12731860D-04 -0.13422580D-04  0.17953785D-04
  0.13549989D-04 -0.12923760D-03 -0.81268072D-04 -0.12874228D-04 -0.58550094D-04
 -0.36817870D-04 -0.58325692D-05  0.39257072D-03  0.24685900D-03  0.39106613D-04
 -0.38231145D-05 -0.36975499D-05 -0.11523648D-05  0.15795545D-05 -0.21127818D-05
 -0.15945479D-05 -0.14934827D-05 -0.93914202D-06 -0.14877588D-06 -0.15969170D-04
 -0.10041843D-04 -0.15907966D-05 -0.70706627D-05 -0.44462224D-05 -0.70435634D-06
 -0.21950847D-04 -0.21229904D-04 -0.66164337D-05 -0.86413983D-05  0.11558568D-04
  0.87234240D-05 -0.36215650D-04 -0.22773372D-04 -0.36076848D-05 -0.22903319D-04
 -0.14402222D-04 -0.22815539D-05  0.11988560D-04  0.75387280D-05  0.11942612D-05
 -0.54533653D-06 -0.52742575D-06 -0.16437557D-06 -0.49023127D-06  0.65572393D-06
  0.49488463D-06 -0.11663849D-05 -0.73345411D-06 -0.11619145D-06  0.13824515D-05
  0.86932259D-06  0.13771530D-06  0.40478512D-05  0.25453975D-05  0.40323372D-06
  0.18420306D-02  0.17815318D-02  0.55522565D-03  0.12617652D-02 -0.16877129D-02
 -0.12737421D-02  0.17223831D-02  0.10830807D-02  0.17157818D-03  0.36809045D-02
  0.23146515D-02  0.36667969D-03 -0.48842975D-02 -0.30713774D-02 -0.48655778D-03
  0.46095379D-06  0.44581443D-06  0.13894089D-06 -0.10667889D-06  0.14269163D-06
  0.10769150D-06  0.89489190D-06  0.56273204D-06  0.89146210D-07  0.41507683D-05
  0.26101145D-05  0.41348598D-06  0.46570027D-06  0.29284483D-06  0.46391541D-07
 -0.18002364D-06 -0.17411103D-06 -0.54262802D-07 -0.84471825D-07  0.11298789D-06
  0.85273646D-07 -0.58699431D-06 -0.36911778D-06 -0.58474457D-07 -0.57053938D-07
 -0.35877047D-07 -0.56835270D-08 -0.44265470D-07 -0.27835315D-07 -0.44095816D-08
 -0.72623749D-07 -0.70238528D-07 -0.21890281D-07  0.50953535D-07 -0.68154469D-07
 -0.51437195D-07 -0.18088092D-06 -0.11374278D-06 -0.18018767D-07  0.25323400D-06
  0.15924033D-06  0.25226344D-07 -0.27044914D-06 -0.17006567D-06 -0.26941260D-07
 -0.23014053D-04 -0.22258191D-04 -0.69369058D-05  0.68610190D-05  0.66356789D-05
  0.20680513D-05  0.47857611D-05  0.46285797D-05  0.14425261D-05 -0.21579475D-04
 -0.20870729D-04 -0.65044945D-05  0.23489877D-06  0.22718386D-06  0.70803287D-07
  0.73494529D-05  0.71080709D-05  0.22152752D-05 -0.27160161D-04 -0.26268126D-04
 -0.81866274D-05  0.60920701D-06  0.58919850D-06  0.18362744D-06  0.15721013D-07
  0.15204679D-07  0.47386343D-08 -0.37423099D-04 -0.36193992D-04 -0.11280086D-04
 -0.22687705D-07 -0.21942560D-07 -0.68385376D-08
MO    4     MO 0.0        OCC NO =    2.0000000  ORB. ENERGY =  -14.115527
 -0.16273078D-04 -0.15738612D-04 -0.49050380D-05 -0.33139303D-05  0.44326495D-05
  0.33453867D-05 -0.53978814D-04 -0.33943326D-04 -0.53771932D-05 -0.22500071D-05
 -0.14148648D-05 -0.22413836D-06  0.29351895D-04  0.18457259D-04  0.29239399D-05
 -0.95436012D-08 -0.92301555D-08 -0.28766363D-08 -0.35241553D-08  0.47138424D-08
  0.35576072D-08 -0.18819222D-07 -0.11834032D-07 -0.18747095D-08 -0.29779004D-07
 -0.18725837D-07 -0.29664872D-08  0.10689606D-07  0.67219110D-08  0.10648636D-08
 -0.82193400D-04 -0.79493878D-04 -0.24774770D-04 -0.15997314D-04  0.21397700D-04
  0.16149164D-04 -0.52852764D-04 -0.33235236D-04 -0.52650198D-05  0.10763494D-03
  0.67683737D-04  0.10722241D-04  0.19803440D-04  0.12452935D-04  0.19727541D-05
  0.34290069D+01  0.33163862D+01  0.10335727D+01 -0.67878131D-02  0.90792484D-02
  0.68522442D-02  0.38666376D-02  0.24314455D-02  0.38518181D-03  0.21156527D-02
  0.13303792D-02  0.21075442D-03  0.48153764D-02  0.30280379D-02  0.47969208D-03
 -0.29273384D-04 -0.28311943D-04 -0.88235959D-05 -0.31304769D-04  0.41872658D-04
  0.31601920D-04 -0.31453411D-03 -0.19778749D-03 -0.31332861D-04  0.27213587D-04
  0.17112634D-04  0.27109287D-05 -0.68555453D-04 -0.43109509D-04 -0.68292704D-05
  0.15709935D-02  0.15193965D-02  0.47352952D-03  0.91206027D-03 -0.12199543D-02
 -0.92071770D-03  0.41249735D-02  0.25938940D-02  0.41091640D-03 -0.14683723D-02
 -0.92335188D-03 -0.14627445D-03 -0.62466817D-03 -0.39280811D-03 -0.62227404D-04
  0.25676452D-04  0.24833147D-04  0.77394072D-05  0.62104956D-05 -0.83070396D-05
 -0.62694467D-05  0.35249002D-04  0.22165518D-04  0.35113905D-05  0.34780814D-04
  0.21871109D-04  0.34647512D-05  0.62698279D-04  0.39426360D-04  0.62457979D-05
 -0.21955930D-06 -0.21234820D-06 -0.66179657D-07 -0.86341980D-06  0.11548937D-05
  0.87161553D-06 -0.31193006D-06 -0.19614999D-06 -0.31073454D-07 -0.21415247D-05
 -0.13466482D-05 -0.21333170D-06 -0.63375550D-05 -0.39852247D-05 -0.63132654D-06
  0.12683788D-05  0.12267207D-05  0.38231526D-06 -0.86171575D-06  0.11526144D-05
  0.86989531D-06  0.24035065D-05  0.15113894D-05  0.23942947D-06 -0.66701389D-05
 -0.41943623D-05 -0.66445746D-06  0.59119615D-06  0.37176000D-06  0.58893030D-07
  0.98995688D-05  0.95744320D-05  0.29839322D-05 -0.37109008D-04  0.49636296D-04
  0.37461253D-04 -0.68575915D-04 -0.43122376D-04 -0.68313088D-05  0.18689773D-03
  0.11752631D-03  0.18618141D-04  0.69432863D-04  0.43661248D-04  0.69166752D-05
  0.22335235D-06  0.21601667D-06  0.67322962D-07  0.25635704D-06 -0.34289825D-06
 -0.25879042D-06  0.69457155D-06  0.43676523D-06  0.69190950D-07 -0.71053530D-06
 -0.44680366D-06 -0.70781207D-07  0.58050273D-08  0.36503569D-08  0.57827787D-09
  0.25836566D-06  0.24988002D-06  0.77876687D-07  0.36129371D-06 -0.48325952D-06
 -0.36472317D-06  0.96943303D-06  0.60960551D-06  0.96571754D-07 -0.13589599D-06
 -0.85455048D-07 -0.13537515D-07 -0.12875690D-05 -0.80965795D-06 -0.12826342D-06
 -0.43789987D-07 -0.42351769D-07 -0.13199197D-07 -0.68677093D-07  0.91861160D-07
  0.69328987D-07 -0.24950113D-06 -0.15689301D-06 -0.24854488D-07  0.24206616D-07
  0.15221770D-07  0.24113840D-08 -0.89498552D-07 -0.56279091D-07 -0.89155536D-08
  0.45154619D-04  0.43671581D-04  0.13610524D-04  0.54170493D-04  0.52391343D-04
  0.16328093D-04  0.86898008D-04  0.84043970D-04  0.26192834D-04 -0.18314821D-05
 -0.17713297D-05 -0.55204611D-06 -0.14852407D-05 -0.14364602D-05 -0.44768189D-06
 -0.21581755D-02 -0.20872934D-02 -0.65051817D-03 -0.21563263D-02 -0.20855049D-02
 -0.64996079D-03  0.21635843D-07  0.20925246D-07  0.65214851D-08 -0.24794013D-08
 -0.23979690D-08 -0.74734219D-09  0.17058106D-05  0.16497858D-05  0.51416616D-06
 -0.73188856D-08 -0.70785076D-08 -0.22060616D-08
MO    5     MO 0.0        OCC NO =    2.0000000  ORB. ENERGY =  -10.098451
  0.26323433D-02  0.25458879D-02  0.79344204D-03  0.12903052D-02 -0.17258874D-02
 -0.13025530D-02  0.16593543D-02  0.10434465D-02  0.16529946D-03 -0.29529020D-02
 -0.18568640D-02 -0.29415846D-03 -0.55420948D-02 -0.34850179D-02 -0.55208539D-03
 -0.25543817D-06 -0.24704868D-06 -0.76994283D-07 -0.10596621D-06  0.14173837D-06
  0.10697206D-06 -0.29311459D-06 -0.18431832D-06 -0.29199119D-07  0.20954258D-07
  0.13176600D-07  0.20873948D-08  0.17593622D-06  0.11063342D-06  0.17526192D-07
  0.23249614D-02  0.22486015D-02  0.70079086D-03  0.17980430D-02 -0.24050277D-02
 -0.18151103D-02 -0.14503820D-02 -0.91203909D-03 -0.14448232D-03 -0.30122360D-02
 -0.18941748D-02 -0.30006912D-03  0.41430352D-02  0.26052517D-02  0.41271564D-03
  0.38876685D-04  0.37599837D-04  0.11718227D-04 -0.66078472D-04  0.88385295D-04
  0.66705701D-04  0.20818225D-03  0.13091058D-03  0.20738436D-04  0.32325640D-03
  0.20327230D-03  0.32201748D-04  0.14493837D-03  0.91141135D-04  0.14438287D-04
 -0.12893849D-02 -0.12470369D-02 -0.38864694D-03 -0.34840765D-04  0.46602338D-04
  0.35171480D-04 -0.90028909D-04 -0.56612594D-04 -0.89683860D-05  0.24261975D-03
  0.15256581D-03  0.24168987D-04 -0.90374097D-05 -0.56829657D-05 -0.90027725D-06
 -0.30730925D-01 -0.29721613D-01 -0.92629284D-02  0.11209982D-02 -0.14994257D-02
 -0.11316389D-02  0.25103824D-03  0.15785958D-03  0.25007610D-04  0.44962108D-02
  0.28273380D-02  0.44789784D-03 -0.18193351D-03 -0.11440467D-03 -0.18123622D-04
 -0.75141337D-03 -0.72673429D-03 -0.22649134D-03  0.11023482D-04 -0.14744798D-04
 -0.11128119D-04  0.93844987D-04  0.59012246D-04  0.93485312D-05  0.14170735D-03
  0.89109387D-04  0.14116424D-04  0.49806403D-04  0.31319603D-04  0.49615512D-05
 -0.38437515D-03 -0.37175091D-03 -0.11585852D-03 -0.59300245D-05  0.79318869D-05
  0.59863133D-05  0.95937202D-04  0.60327887D-04  0.95569509D-05  0.23665327D-04
  0.14881393D-04  0.23574626D-05  0.10874168D-03  0.68379689D-04  0.10832492D-04
  0.21281073D-04  0.20582127D-04  0.64145501D-05  0.21660339D-05 -0.28972454D-05
 -0.21865943D-05 -0.52147157D-05 -0.32791532D-05 -0.51947296D-06 -0.13161978D-04
 -0.82766051D-05 -0.13111533D-05 -0.27161940D-04 -0.17080157D-04 -0.27057838D-05
  0.26839213D+01  0.25957719D+01  0.80898871D+00 -0.60352617D-02  0.80726501D-02
  0.60925495D-02 -0.17617563D-03 -0.11078396D-03 -0.17550041D-04 -0.31316640D-03
 -0.19692743D-03 -0.31196614D-04  0.44431258D-03  0.27939567D-03  0.44260969D-04
 -0.12172196D-07 -0.11772418D-07 -0.36689484D-08  0.34948673D-05 -0.46746673D-05
 -0.35280412D-05  0.19808095D-05  0.12455862D-05  0.19732178D-06 -0.16783837D-04
 -0.10554127D-04 -0.16719510D-05 -0.20939663D-04 -0.13167422D-04 -0.20859409D-05
  0.29215167D-07  0.28255637D-07  0.88060480D-08  0.98861799D-07 -0.13223564D-06
 -0.99800213D-07  0.71158607D-06  0.44746442D-06  0.70885881D-07  0.65468347D-06
  0.41168253D-06  0.65217430D-07  0.20336138D-05  0.12787909D-05  0.20258197D-06
  0.66398142D-05  0.64217393D-05  0.20013756D-05 -0.16314446D-06  0.21821889D-06
  0.16469305D-06 -0.99759733D-06 -0.62731597D-06 -0.99377390D-07  0.10634305D-05
  0.66871364D-06  0.10593548D-06  0.11737892D-05  0.73811017D-06  0.11692905D-06
 -0.58964954D-04 -0.57028336D-04 -0.17773241D-04 -0.56080889D-04 -0.54238994D-04
 -0.16903925D-04  0.17468795D-04  0.16895058D-04  0.52654516D-05 -0.62528941D-04
 -0.60475269D-04 -0.18847500D-04  0.17450362D-07  0.16877230D-07  0.52598954D-08
 -0.54003316D-04 -0.52229656D-04 -0.16277702D-04 -0.10006754D-03 -0.96780965D-04
 -0.30162400D-04  0.12847805D-05  0.12425838D-05  0.38725910D-06  0.92571972D-07
  0.89531581D-07  0.27903083D-07 -0.47091374D-03 -0.45544727D-03 -0.14194302D-03
 -0.11505807D-06 -0.11127915D-06 -0.34680852D-07
MO    6     MO 0.0        OCC NO =    2.0000000  ORB. ENERGY =  -10.058027
  0.88876206D-08  0.85957197D-08  0.26789104D-08 -0.20102128D-08  0.26888220D-08
  0.20292941D-08 -0.80496077D-07 -0.50618093D-07 -0.80187564D-08  0.36717529D-07
  0.23088968D-07  0.36576804D-08  0.33968396D-07  0.21360239D-07  0.33838207D-08
  0.27053738D-02  0.26165197D-02  0.81545491D-03  0.13457521D-02 -0.18000522D-02
 -0.13585262D-02  0.60314870D-02  0.37927609D-02  0.60083705D-03 -0.22459999D-02
 -0.14123450D-02 -0.22373918D-03 -0.10608874D-02 -0.66711445D-03 -0.10568214D-03
 -0.26015081D-06 -0.25160654D-06 -0.78414767D-07 -0.33623154D-07  0.44973684D-07
  0.33942310D-07  0.56626660D-06  0.35608363D-06  0.56409630D-07 -0.92881983D-07
 -0.58406683D-07 -0.92525999D-08  0.62374283D-06  0.39222623D-06  0.62135225D-07
 -0.12732098D-07 -0.12313931D-07 -0.38377144D-08 -0.31077793D-07  0.41569059D-07
  0.31372789D-07 -0.33438448D-06 -0.21026993D-06 -0.33310290D-07 -0.80192055D-07
 -0.50426916D-07 -0.79884707D-08 -0.17916860D-06 -0.11266602D-06 -0.17848191D-07
 -0.26771256D-03 -0.25891993D-03 -0.80694034D-04  0.74962952D-05 -0.10026900D-04
 -0.75674513D-05 -0.24454396D-04 -0.15377580D-04 -0.24360671D-05  0.68965463D-05
  0.43367334D-05  0.68701143D-06  0.33721461D-05  0.21204960D-05  0.33592219D-06
  0.94526971D-04  0.91422371D-04  0.28492360D-04 -0.46836042D-06  0.62646989D-06
  0.47280618D-06  0.19462065D-05  0.12238269D-05  0.19387474D-06 -0.85124181D-07
 -0.53528370D-07 -0.84797931D-08  0.62323915D-06  0.39190950D-06  0.62085050D-07
 -0.13904861D-02 -0.13448176D-02 -0.41912092D-03  0.23987814D-04 -0.32085640D-04
 -0.24215511D-04 -0.16686570D-03 -0.10492963D-03 -0.16622616D-04  0.53499543D-04
  0.33641948D-04  0.53294498D-05  0.35969256D-04  0.22618433D-04  0.35831398D-05
 -0.83903396D-03 -0.81147711D-03 -0.25290197D-03 -0.56624573D-04  0.75739941D-04
  0.57162063D-04  0.10095343D-03  0.63482228D-04  0.10056651D-04  0.51442907D-05
  0.32348680D-05  0.51245744D-06 -0.49095156D-04 -0.30872351D-04 -0.48906992D-05
 -0.85314030D-03 -0.82512016D-03 -0.25715391D-03 -0.55932286D-04  0.74813952D-04
  0.56463205D-04  0.86787675D-04  0.54574419D-04  0.86455049D-05 -0.68004630D-04
 -0.42763136D-04 -0.67743992D-05  0.11577461D-04  0.72802183D-05  0.11533089D-05
 -0.67709153D-05 -0.65485345D-05 -0.20408922D-05 -0.19437455D-07  0.25999166D-07
  0.19621959D-07  0.34371859D-06  0.21613947D-06  0.34240124D-07 -0.27529725D-06
 -0.17311430D-06 -0.27424213D-07  0.48931436D-06  0.30769400D-06  0.48743899D-07
 -0.16330964D-01 -0.15794598D-01 -0.49224862D-02  0.14761847D-02 -0.19745163D-02
 -0.14901969D-02 -0.29539576D-02 -0.18575278D-02 -0.29426361D-03 -0.27312786D-02
 -0.17175013D-02 -0.27208106D-03  0.33653711D-02  0.21162356D-02  0.33524728D-03
 -0.16117189D-01 -0.15587844D-01 -0.48580500D-02  0.14795664D-02 -0.19790397D-02
 -0.14936107D-02 -0.19227229D-02 -0.12090597D-02 -0.19153538D-03  0.43476485D-02
  0.27339181D-02  0.43309855D-03 -0.23476810D-02 -0.14762848D-02 -0.23386832D-03
  0.26828286D+01  0.25947150D+01  0.80865933D+00 -0.66842485D-02  0.89407223D-02
  0.67476965D-02 -0.15322352D-02 -0.96351059D-03 -0.15263627D-03  0.57591660D-03
  0.36215181D-03  0.57370931D-04  0.28633561D-03  0.18005552D-03  0.28523819D-04
  0.17032555D-05  0.16473146D-05  0.51339601D-06  0.15452541D-05  0.14945025D-05
  0.46577114D-06  0.19147094D-06  0.18518235D-06  0.57713251D-07 -0.25138087D-04
 -0.24312463D-04 -0.75771328D-05 -0.24789127D-04 -0.23974964D-04 -0.74719492D-05
 -0.11362555D-06 -0.10989369D-06 -0.34249062D-07 -0.11380582D-06 -0.11006803D-06
 -0.34303398D-07  0.50496720D-04  0.48838229D-04  0.15220743D-04  0.31177696D-04