 opt tyrosine m062x
GAUSSIAN             48 MOL ORBITALS    228 PRIMITIVES       24 NUCLEI
  O    1    (CENTRE  1)  -2.49814456 -2.68466127 -2.61504560  CHARGE =  8.0
  O    2    (CENTRE  2)   8.01359082 -0.87968376 -0.65636237  CHARGE =  8.0
  O    3    (CENTRE  3)  -5.03233977 -3.13049247  0.93992802  CHARGE =  8.0
  N    4    (CENTRE  4)  -6.74890920  1.95926138 -0.24274642  CHARGE =  7.0
  C    5    (CENTRE  5)  -2.18554323  2.23244425  1.43372741  CHARGE =  6.0
  C    6    (CENTRE  6)  -4.04127992  1.19877239 -0.63679831  CHARGE =  6.0
  C    7    (CENTRE  7)   0.53808047  1.40297187  0.94673338  CHARGE =  6.0
  C    8    (CENTRE  8)   1.52957205 -0.75739615  2.11332599  CHARGE =  6.0
  C    9    (CENTRE  9)   2.07623420  2.74883008 -0.75013061  CHARGE =  6.0
  C   10    (CENTRE 10)  -3.97000044 -1.74780574 -0.62082514  CHARGE =  6.0
  C   11    (CENTRE 11)   3.99363391 -1.55947363  1.62379183  CHARGE =  6.0
  C   12    (CENTRE 12)   4.53750478  1.97847127 -1.26243188  CHARGE =  6.0
  C   13    (CENTRE 13)   5.52221711 -0.19535691 -0.07222691  CHARGE =  6.0
  H   14    (CENTRE 14)  -2.81966586  1.54012391  3.28641231  CHARGE =  1.0
  H   15    (CENTRE 15)  -2.30937068  4.30656140  1.43470505  CHARGE =  1.0
  H   16    (CENTRE 16)  -3.41073359  1.86692944 -2.50738620  CHARGE =  1.0
  H   17    (CENTRE 17)   0.35665473 -1.82905117  3.43697908  CHARGE =  1.0
  H   18    (CENTRE 18)   1.32433138  4.43685335 -1.67764143  CHARGE =  1.0
  H   19    (CENTRE 19)  -6.69513769  3.89303332  0.23185231  CHARGE =  1.0
  H   20    (CENTRE 20)  -7.26387208  1.08047173  1.47065125  CHARGE =  1.0
  H   21    (CENTRE 21)   4.75123342 -3.24323912  2.55242953  CHARGE =  1.0
  H   22    (CENTRE 22)   5.73651439  3.02795142 -2.57539946  CHARGE =  1.0
  H   23    (CENTRE 23)  -2.59678628 -4.58806265 -2.35101149  CHARGE =  1.0
  H   24    (CENTRE 24)   8.30183120 -2.45644580  0.39847921  CHARGE =  1.0
CENTRE ASSIGNMENTS    1  1  1  1  1  1  1  1  1  1  1  1  1  1  1  2  2  2  2  2
CENTRE ASSIGNMENTS    2  2  2  2  2  2  2  2  2  2  3  3  3  3  3  3  3  3  3  3
CENTRE ASSIGNMENTS    3  3  3  3  3  4  4  4  4  4  4  4  4  4  4  4  4  4  4  4
CENTRE ASSIGNMENTS    5  5  5  5  5  5  5  5  5  5  5  5  5  5  5  6  6  6  6  6
CENTRE ASSIGNMENTS    6  6  6  6  6  6  6  6  6  6  7  7  7  7  7  7  7  7  7  7
CENTRE ASSIGNMENTS    7  7  7  7  7  8  8  8  8  8  8  8  8  8  8  8  8  8  8  8
CENTRE ASSIGNMENTS    9  9  9  9  9  9  9  9  9  9  9  9  9  9  9 10 10 10 10 10
CENTRE ASSIGNMENTS   10 10 10 10 10 10 10 10 10 10 11 11 11 11 11 11 11 11 11 11
CENTRE ASSIGNMENTS   11 11 11 11 11 12 12 12 12 12 12 12 12 12 12 12 12 12 12 12
CENTRE ASSIGNMENTS   13 13 13 13 13 13 13 13 13 13 13 13 13 13 13 14 14 14 15 15
CENTRE ASSIGNMENTS   15 16 16 16 17 17 17 18 18 18 19 19 19 20 20 20 21 21 21 22
CENTRE ASSIGNMENTS   22 22 23 23 23 24 24 24
TYPE ASSIGNMENTS      1  1  1  1  1  1  2  2  2  3  3  3  4  4  4  1  1  1  1  1
TYPE ASSIGNMENTS      1  2  2  2  3  3  3  4  4  4  1  1  1  1  1  1  2  2  2  3
TYPE ASSIGNMENTS      3  3  4  4  4  1  1  1  1  1  1  2  2  2  3  3  3  4  4  4
TYPE ASSIGNMENTS      1  1  1  1  1  1  2  2  2  3  3  3  4  4  4  1  1  1  1  1
TYPE ASSIGNMENTS      1  2  2  2  3  3  3  4  4  4  1  1  1  1  1  1  2  2  2  3
TYPE ASSIGNMENTS      3  3  4  4  4  1  1  1  1  1  1  2  2  2  3  3  3  4  4  4
TYPE ASSIGNMENTS      1  1  1  1  1  1  2  2  2  3  3  3  4  4  4  1  1  1  1  1
TYPE ASSIGNMENTS      1  2  2  2  3  3  3  4  4  4  1  1  1  1  1  1  2  2  2  3
TYPE ASSIGNMENTS      3  3  4  4  4  1  1  1  1  1  1  2  2  2  3  3  3  4  4  4
TYPE ASSIGNMENTS      1  1  1  1  1  1  2  2  2  3  3  3  4  4  4  1  1  1  1  1
TYPE ASSIGNMENTS      1  1  1  1  1  1  1  1  1  1  1  1  1  1  1  1  1  1  1  1
TYPE ASSIGNMENTS      1  1  1  1  1  1  1  1
EXPONENTS  0.1307093D+03 0.2380887D+02 0.6443608D+01 0.5033151D+01 0.1169596D+01
EXPONENTS  0.3803890D+00 0.5033151D+01 0.1169596D+01 0.3803890D+00 0.5033151D+01
EXPONENTS  0.1169596D+01 0.3803890D+00 0.5033151D+01 0.1169596D+01 0.3803890D+00
EXPONENTS  0.1307093D+03 0.2380887D+02 0.6443608D+01 0.5033151D+01 0.1169596D+01
EXPONENTS  0.3803890D+00 0.5033151D+01 0.1169596D+01 0.3803890D+00 0.5033151D+01
EXPONENTS  0.1169596D+01 0.3803890D+00 0.5033151D+01 0.1169596D+01 0.3803890D+00
EXPONENTS  0.1307093D+03 0.2380887D+02 0.6443608D+01 0.5033151D+01 0.1169596D+01
EXPONENTS  0.3803890D+00 0.5033151D+01 0.1169596D+01 0.3803890D+00 0.5033151D+01
EXPONENTS  0.1169596D+01 0.3803890D+00 0.5033151D+01 0.1169596D+01 0.3803890D+00
EXPONENTS  0.9910617D+02 0.1805231D+02 0.4885660D+01 0.3780456D+01 0.8784966D+00
EXPONENTS  0.2857144D+00 0.3780456D+01 0.8784966D+00 0.2857144D+00 0.3780456D+01
EXPONENTS  0.8784966D+00 0.2857144D+00 0.3780456D+01 0.8784966D+00 0.2857144D+00
EXPONENTS  0.7161684D+02 0.1304510D+02 0.3530512D+01 0.2941249D+01 0.6834831D+00
EXPONENTS  0.2222899D+00 0.2941249D+01 0.6834831D+00 0.2222899D+00 0.2941249D+01
EXPONENTS  0.6834831D+00 0.2222899D+00 0.2941249D+01 0.6834831D+00 0.2222899D+00
EXPONENTS  0.7161684D+02 0.1304510D+02 0.3530512D+01 0.2941249D+01 0.6834831D+00
EXPONENTS  0.2222899D+00 0.2941249D+01 0.6834831D+00 0.2222899D+00 0.2941249D+01
EXPONENTS  0.6834831D+00 0.2222899D+00 0.2941249D+01 0.6834831D+00 0.2222899D+00
EXPONENTS  0.7161684D+02 0.1304510D+02 0.3530512D+01 0.2941249D+01 0.6834831D+00
EXPONENTS  0.2222899D+00 0.2941249D+01 0.6834831D+00 0.2222899D+00 0.2941249D+01
EXPONENTS  0.6834831D+00 0.2222899D+00 0.2941249D+01 0.6834831D+00 0.2222899D+00
EXPONENTS  0.7161684D+02 0.1304510D+02 0.3530512D+01 0.2941249D+01 0.6834831D+00
EXPONENTS  0.2222899D+00 0.2941249D+01 0.6834831D+00 0.2222899D+00 0.2941249D+01
EXPONENTS  0.6834831D+00 0.2222899D+00 0.2941249D+01 0.6834831D+00 0.2222899D+00
EXPONENTS  0.7161684D+02 0.1304510D+02 0.3530512D+01 0.2941249D+01 0.6834831D+00
EXPONENTS  0.2222899D+00 0.2941249D+01 0.6834831D+00 0.2222899D+00 0.2941249D+01
EXPONENTS  0.6834831D+00 0.2222899D+00 0.2941249D+01 0.6834831D+00 0.2222899D+00
EXPONENTS  0.7161684D+02 0.1304510D+02 0.3530512D+01 0.2941249D+01 0.6834831D+00
EXPONENTS  0.2222899D+00 0.2941249D+01 0.6834831D+00 0.2222899D+00 0.2941249D+01
EXPONENTS  0.6834831D+00 0.2222899D+00 0.2941249D+01 0.6834831D+00 0.2222899D+00
EXPONENTS  0.7161684D+02 0.1304510D+02 0.3530512D+01 0.2941249D+01 0.6834831D+00
EXPONENTS  0.2222899D+00 0.2941249D+01 0.6834831D+00 0.2222899D+00 0.2941249D+01
EXPONENTS  0.6834831D+00 0.2222899D+00 0.2941249D+01 0.6834831D+00 0.2222899D+00
EXPONENTS  0.7161684D+02 0.1304510D+02 0.3530512D+01 0.2941249D+01 0.6834831D+00
EXPONENTS  0.2222899D+00 0.2941249D+01 0.6834831D+00 0.2222899D+00 0.2941249D+01
EXPONENTS  0.6834831D+00 0.2222899D+00 0.2941249D+01 0.6834831D+00 0.2222899D+00
EXPONENTS  0.7161684D+02 0.1304510D+02 0.3530512D+01 0.2941249D+01 0.6834831D+00
EXPONENTS  0.2222899D+00 0.2941249D+01 0.6834831D+00 0.2222899D+00 0.2941249D+01
EXPONENTS  0.6834831D+00 0.2222899D+00 0.2941249D+01 0.6834831D+00 0.2222899D+00
EXPONENTS  0.3425251D+01 0.6239137D+00 0.1688554D+00 0.3425251D+01 0.6239137D+00
EXPONENTS  0.1688554D+00 0.3425251D+01 0.6239137D+00 0.1688554D+00 0.3425251D+01
EXPONENTS  0.6239137D+00 0.1688554D+00 0.3425251D+01 0.6239137D+00 0.1688554D+00
EXPONENTS  0.3425251D+01 0.6239137D+00 0.1688554D+00 0.3425251D+01 0.6239137D+00
EXPONENTS  0.1688554D+00 0.3425251D+01 0.6239137D+00 0.1688554D+00 0.3425251D+01
EXPONENTS  0.6239137D+00 0.1688554D+00 0.3425251D+01 0.6239137D+00 0.1688554D+00
EXPONENTS  0.3425251D+01 0.6239137D+00 0.1688554D+00
MO    1     MO 0.0        OCC NO =    2.0000000  ORB. ENERGY =  -19.428706
  0.34499145D-05  0.33366071D-05  0.10398747D-05 -0.16392602D-08  0.21926430D-08
  0.16548204D-08 -0.59118337D-08 -0.37175197D-08 -0.58891758D-09 -0.30930093D-07
 -0.19449673D-07 -0.30811549D-08 -0.47401181D-07 -0.29807135D-07 -0.47219509D-08
  0.42264795D+01  0.40876670D+01  0.12739473D+01 -0.63970940D-02  0.85566301D-02
  0.64578164D-02 -0.48488326D-02 -0.30490761D-02 -0.48302487D-03 -0.29454387D-02
 -0.18521709D-02 -0.29341499D-03  0.43431661D-02  0.27310994D-02  0.43265203D-03
  0.23950434D-06  0.23163817D-06  0.72191500D-07  0.13596362D-07 -0.18186232D-07
 -0.13725421D-07  0.49240176D-07  0.30963544D-07  0.49051456D-08 -0.85745647D-07
 -0.53919164D-07 -0.85417015D-08  0.17887758D-06  0.11248302D-06  0.17819201D-07
 -0.12210380D-07 -0.11809348D-07 -0.36804578D-08 -0.15863841D-07  0.21219169D-07
  0.16014423D-07 -0.37988627D-07 -0.23888268D-07 -0.37843030D-08 -0.28159146D-07
 -0.17707227D-07 -0.28051222D-08 -0.43534192D-07 -0.27375468D-07 -0.43367341D-08
  0.31214372D-05  0.30189181D-05  0.94086492D-06  0.21600520D-05 -0.28892441D-05
 -0.21805556D-05 -0.78820183D-05 -0.49564246D-05 -0.78518093D-06  0.16702763D-05
  0.10503146D-05  0.16638747D-06  0.11891180D-05  0.74774933D-06  0.11845606D-06
  0.57378784D-07  0.55494262D-07  0.17295137D-07 -0.14131589D-07  0.18902142D-07
  0.14265728D-07  0.29045948D-06  0.18264872D-06  0.28934625D-07  0.18209802D-07
  0.11450812D-07  0.18140010D-08 -0.13154262D-07 -0.82717526D-08 -0.13103846D-08
  0.78677961D-05  0.76093899D-05  0.23715145D-05 -0.15907248D-05  0.21277229D-05
  0.16058242D-05 -0.33402008D-04 -0.21004079D-04 -0.33273990D-05  0.10500629D-04
  0.66030770D-05  0.10460383D-05  0.67320849D-05  0.42333156D-05  0.67062832D-06
 -0.39457451D-05 -0.38161529D-05 -0.11893282D-05 -0.20528824D-04  0.27458961D-04
  0.20723688D-04  0.60806365D-04  0.38236674D-04  0.60573316D-05 -0.62464671D-04
 -0.39279461D-04 -0.62225266D-05  0.19808095D-04  0.12455861D-04  0.19732177D-05
  0.12229414D-04  0.11827757D-04  0.36861951D-05 -0.61215841D-05  0.81881132D-05
  0.61796912D-05  0.21614467D-04  0.13591757D-04  0.21531627D-05  0.40741269D-04
  0.25619203D-04  0.40585122D-05 -0.39966024D-04 -0.25131708D-04 -0.39812848D-05
 -0.14238814D-06 -0.13771161D-06 -0.42918695D-07 -0.46710935D-07  0.62479649D-07
  0.47154323D-07  0.11821230D-06  0.74335065D-07  0.11775923D-07 -0.15781486D-07
 -0.99238222D-08 -0.15721002D-08  0.24896651D-06  0.15655682D-06  0.24801230D-07
 -0.79027660D-04 -0.76432112D-04 -0.23820551D-04 -0.19429360D-04  0.25988338D-04
  0.19613787D-04  0.52549675D-03  0.33044646D-03  0.52348271D-04 -0.25501669D-03
 -0.16036134D-03 -0.25403931D-04 -0.40279012D-04 -0.25328524D-04 -0.40124637D-05
 -0.71131253D-04 -0.68795051D-04 -0.21440412D-04 -0.51417976D-04  0.68775697D-04
  0.51906044D-04  0.40489000D-03  0.25460570D-03  0.40333820D-04 -0.49845249D-04
 -0.31344030D-04 -0.49654210D-05 -0.14086092D-03 -0.88577129D-04 -0.14032105D-04
  0.14841963D-02  0.14354501D-02  0.44736708D-03  0.74920106D-03 -0.10021169D-02
 -0.75631260D-03 -0.38861512D-02 -0.24437162D-02 -0.38712570D-03  0.98939157D-03
  0.62215597D-03  0.98559958D-04  0.96924671D-03  0.60948834D-03  0.96553193D-04
  0.54125731D-06  0.52348051D-06  0.16314601D-06  0.35192704D-06  0.34036851D-06
  0.10607800D-06  0.52856347D-07  0.51120358D-07  0.15931983D-07 -0.77679965D-05
 -0.75128680D-05 -0.23414328D-05 -0.55222924D-05 -0.53409208D-05 -0.16645317D-05
 -0.38880036D-07 -0.37603078D-07 -0.11719237D-07 -0.31286053D-07 -0.30258508D-07
 -0.94302554D-08  0.40009603D-04  0.38695546D-04  0.12059712D-04 -0.64418286D-04
 -0.62302562D-04 -0.19416987D-04 -0.47028684D-08 -0.45484095D-08 -0.14175406D-08
 -0.16348985D-02 -0.15812027D-02 -0.49279180D-03
MO    2     MO 0.0        OCC NO =    2.0000000  ORB. ENERGY =  -19.425289
  0.42264941D+01  0.40876811D+01  0.12739516D+01 -0.63857534D-02  0.85414611D-02
  0.64463681D-02 -0.35459469D-02 -0.22297866D-02 -0.35323565D-03 -0.32130219D-02
 -0.20204344D-02 -0.32007075D-03  0.51715097D-02  0.32519841D-02  0.51516892D-03
 -0.34380834D-05 -0.33251646D-05 -0.10363086D-05  0.59406945D-08 -0.79461589D-08
 -0.59970846D-08  0.88102478D-09  0.55401202D-09  0.87764812D-10 -0.20750289D-07
 -0.13048339D-07 -0.20670761D-08  0.84123810D-08  0.52899309D-08  0.83801393D-09
  0.35992111D-02  0.34810003D-02  0.10848757D-02 -0.52052339D-04  0.69624208D-04
  0.52546429D-04  0.44633341D-03  0.28066643D-03  0.44462278D-04 -0.75912032D-03
 -0.47735523D-03 -0.75621089D-04 -0.57498113D-03 -0.36156356D-03 -0.57277743D-04
  0.20745600D-05  0.20064241D-05  0.62531476D-06 -0.70966871D-06  0.94923923D-06
  0.71640501D-06 -0.11250749D-04 -0.70747731D-05 -0.11207629D-05  0.44229928D-04
  0.27812966D-04  0.44060410D-05  0.80655551D-05  0.50718375D-05  0.80346427D-06
 -0.15238835D-04 -0.14738338D-04 -0.45932961D-05 -0.38397117D-05  0.51359246D-05
  0.38761589D-05 -0.55039369D-05 -0.34610232D-05 -0.54828422D-06 -0.20053998D-04
 -0.12610492D-04 -0.19977138D-05 -0.61498370D-05 -0.38671825D-05 -0.61262669D-06
 -0.75464891D-04 -0.72986357D-04 -0.22746660D-04 -0.58654389D-04  0.78454983D-04
  0.59211146D-04  0.13716847D-03  0.86255214D-04  0.13664275D-04 -0.14060488D-03
 -0.88416125D-04 -0.14006600D-04 -0.26282908D-03 -0.16527398D-03 -0.26182175D-04
 -0.57053898D-05 -0.55180046D-05 -0.17197210D-05 -0.81850895D-06  0.10948218D-05
  0.82627838D-06 -0.11106081D-04 -0.69838019D-05 -0.11063516D-05 -0.70190813D-05
 -0.44137867D-05 -0.69921797D-06  0.59942738D-05  0.37693602D-05  0.59712999D-06
 -0.59855498D-05 -0.57889631D-05 -0.18041670D-05 -0.47509106D-06  0.63547268D-06
  0.47960071D-06 -0.12038500D-04 -0.75701321D-05 -0.11992361D-05 -0.43506307D-05
 -0.27357933D-05 -0.43339563D-06 -0.74783508D-05 -0.47025877D-05 -0.74496890D-06
 -0.10206294D-05 -0.98710829D-06 -0.30763854D-06 -0.69844369D-06  0.93422486D-06
  0.70507344D-06 -0.14035427D-05 -0.88258528D-06 -0.13981634D-06 -0.11024220D-05
 -0.69323253D-06 -0.10981968D-06  0.28779680D-05  0.18097435D-05  0.28669378D-06
  0.14627898D-02  0.14147466D-02  0.44091471D-03  0.73344037D-03 -0.98103574D-03
 -0.74040231D-03 -0.23030439D-02 -0.14482158D-02 -0.22942172D-03  0.13351247D-02
  0.83956221D-03  0.13300076D-03  0.31230748D-02  0.19638732D-02  0.31111052D-03
 -0.92059890D-06 -0.89036318D-06 -0.27748731D-06 -0.50557116D-06  0.67624228D-06
  0.51037013D-06 -0.13482326D-05 -0.84780487D-06 -0.13430654D-06  0.13294363D-05
  0.83598524D-06  0.13243411D-06  0.33713367D-06  0.21199870D-06  0.33584156D-07
 -0.64595879D-07 -0.62474322D-07 -0.19470517D-07 -0.10508703D-07  0.14056239D-07
  0.10608453D-07 -0.95224388D-07 -0.59879650D-07 -0.94859426D-08 -0.46740176D-07
 -0.29391477D-07 -0.46561038D-08 -0.12933095D-06 -0.81326775D-07 -0.12883527D-07
  0.56765247D-08  0.54900875D-08  0.17110205D-08  0.42949315D-07 -0.57448179D-07
 -0.43356997D-07  0.12951184D-06  0.81440523D-07  0.12901547D-07  0.75704269D-07
  0.47604876D-07  0.75414121D-08 -0.14908338D-06 -0.93747629D-07 -0.14851200D-07
 -0.68681805D-05 -0.66426052D-05 -0.20702099D-05  0.30402198D-05  0.29403682D-05
  0.91638435D-06 -0.74823716D-04 -0.72366240D-04 -0.22553396D-04  0.58165073D-05
  0.56254727D-05  0.17532141D-05  0.69660870D-06  0.67372961D-06  0.20997209D-06
  0.67949203D-06  0.65717511D-06  0.20481278D-06 -0.17350859D-04 -0.16780995D-04
 -0.52299033D-05  0.72258953D-07  0.69885713D-07  0.21780324D-07 -0.98671009D-08
 -0.95430304D-08 -0.29741458D-08 -0.16139661D-02 -0.15609577D-02 -0.48648235D-03
  0.64814904D-08  0.62686153D-08  0.19536536D-08
MO    3     MO 0.0        OCC NO =    2.0000000  ORB. ENERGY =  -19.370639
 -0.39179593D-02 -0.37892796D-02 -0.11809529D-02 -0.60120214D-04  0.80415644D-04
  0.60690886D-04 -0.27497428D-03 -0.17291121D-03 -0.27392040D-04 -0.72375814D-03
 -0.45511854D-03 -0.72098424D-04  0.42747198D-03  0.26880585D-03  0.42583363D-04
 -0.25049724D-06 -0.24227003D-06 -0.75504985D-07 -0.28265048D-08  0.37806785D-08
  0.28533345D-08 -0.28399895D-07 -0.17858616D-07 -0.28291048D-08 -0.19391981D-07
 -0.12194198D-07 -0.19317658D-08  0.12308136D-07  0.77396863D-08  0.12260963D-08
  0.42267530D+01  0.40879315D+01  0.12740297D+01 -0.64175119D-02  0.85839406D-02
  0.64784280D-02  0.43966863D-02  0.27647543D-02  0.43798354D-03  0.56681179D-02
  0.35642646D-02  0.56463940D-03 -0.64452609D-02 -0.40529530D-02 -0.64205585D-03
 -0.47740196D-04 -0.46172239D-04 -0.14389870D-04 -0.17516175D-04  0.23429300D-04
  0.17682442D-04 -0.75861947D-04 -0.47704028D-04 -0.75571195D-05 -0.13744694D-03
 -0.86430323D-04 -0.13692015D-04  0.63882088D-04  0.40170771D-04  0.63637250D-05
 -0.32970170D-04 -0.31887313D-04 -0.99378826D-05 -0.74074362D-05  0.99080443D-05
  0.74777488D-05  0.12294934D-04  0.77313842D-05  0.12247812D-05 -0.72642032D-04
 -0.45679259D-04 -0.72363621D-05  0.53995623D-05  0.33953897D-05  0.53788677D-06
 -0.42864657D-04 -0.41456831D-04 -0.12920283D-04 -0.18485757D-04  0.24726194D-04
  0.18661227D-04 -0.22966487D-03 -0.14441943D-03 -0.22878464D-04 -0.89630194D-04
 -0.56361871D-04 -0.89286673D-05  0.30434775D-03  0.19138203D-03  0.30318130D-04
  0.25173542D-05  0.24346754D-05  0.75878198D-06  0.36822982D-05 -0.49253713D-05
 -0.37172512D-05  0.42481647D-05  0.26713600D-05  0.42318830D-06 -0.62619293D-05
 -0.39376692D-05 -0.62379295D-06  0.10663739D-05  0.67056452D-06  0.10622869D-06
 -0.15127844D-04 -0.14630992D-04 -0.45598411D-05 -0.46772634D-05  0.62562177D-05
  0.47216608D-05 -0.31101080D-04 -0.19557194D-04 -0.30981880D-05 -0.12414556D-04
 -0.78066062D-05 -0.12366976D-05 -0.49661898D-05 -0.31228734D-05 -0.49471561D-06
 -0.87286567D-06 -0.84419767D-06 -0.26309954D-06 -0.71986333D-06  0.96287536D-06
  0.72669640D-06 -0.25373116D-05 -0.15955297D-05 -0.25275870D-06  0.21718159D-06
  0.13656961D-06  0.21634921D-07  0.36935005D-05  0.23225722D-05  0.36793446D-06
  0.16456275D-02  0.15915792D-02  0.49602573D-03  0.11904976D-02 -0.15923867D-02
 -0.12017980D-02  0.26549233D-02  0.16694870D-02  0.26447480D-03  0.34912506D-02
  0.21953921D-02  0.34778699D-03 -0.39093070D-02 -0.24582771D-02 -0.38943240D-03
 -0.37269057D-07 -0.36045009D-07 -0.11233655D-07 -0.48603806D-06  0.65011517D-06
  0.49065162D-06 -0.17301010D-06 -0.10879339D-06 -0.17234701D-07  0.39861793D-05
  0.25066165D-05  0.39709017D-06  0.22034002D-05  0.13855572D-05  0.21949553D-06
 -0.16962268D-06 -0.16405167D-06 -0.51127741D-07 -0.10101708D-06  0.13511851D-06
  0.10197595D-06 -0.51224363D-06 -0.32211254D-06 -0.51028039D-07  0.11297728D-06
  0.71043144D-07  0.11254428D-07 -0.94891637D-07 -0.59670407D-07 -0.94527951D-08
 -0.12943513D-07 -0.12518402D-07 -0.39014392D-08  0.46646491D-07 -0.62393451D-07
 -0.47089268D-07  0.24102121D-07  0.15156061D-07  0.24009747D-08 -0.33572782D-09
 -0.21111466D-09 -0.33444109D-10 -0.33142923D-06 -0.20841159D-06 -0.33015898D-07
 -0.83986864D-05 -0.81228438D-05 -0.25315356D-05  0.66201862D-05  0.64027559D-05
  0.19954593D-05  0.41352528D-05  0.39994365D-05  0.12464497D-05 -0.46659167D-05
 -0.45126714D-05 -0.14064026D-05  0.21819856D-06  0.21103214D-06  0.65769501D-07
  0.67577429D-05  0.65357948D-05  0.20369217D-05 -0.64125657D-04 -0.62019544D-04
 -0.19328783D-04  0.21377949D-06  0.20675822D-06  0.64437505D-07 -0.32240783D-08
 -0.31181882D-08 -0.97180306D-09 -0.35043212D-04 -0.33892269D-04 -0.10562740D-04
  0.18505987D-08  0.17898185D-08  0.55780825D-09
MO    4     MO 0.0        OCC NO =    2.0000000  ORB. ENERGY =  -14.546841
  0.72386771D-05  0.70009333D-05  0.21818851D-05  0.21614244D-05 -0.28910797D-05
 -0.21819410D-05 -0.45733607D-04 -0.28758519D-04 -0.45558326D-05 -0.52297446D-04
 -0.32886038D-04 -0.52097009D-05  0.20113603D-05  0.12647973D-05  0.20036515D-06
 -0.11138931D-07 -0.10773089D-07 -0.33575012D-08 -0.35625512D-08  0.47652001D-08
  0.35963676D-08 -0.57745028D-07 -0.36311623D-07 -0.57523712D-08 -0.90651400D-07
 -0.57004033D-07 -0.90303965D-08 -0.59433382D-07 -0.37373305D-07 -0.59205595D-08
 -0.10172928D-03 -0.98388127D-04 -0.30663282D-04 -0.23038073D-04  0.30815284D-04
  0.23256755D-04 -0.81875908D-04 -0.51485768D-04 -0.81562107D-05  0.13456756D-03
  0.84619694D-04  0.13405181D-04  0.63009960D-04  0.39622354D-04  0.62768466D-05
  0.34310509D+01  0.33183630D+01  0.10341888D+01 -0.62928816D-02  0.84172376D-02
  0.63526148D-02  0.35243150D-02  0.22161839D-02  0.35108076D-03  0.14437871D-02
  0.90789209D-03  0.14382536D-03  0.49497018D-02  0.31125053D-02  0.49307314D-03
 -0.23739433D-04 -0.22959746D-04 -0.71555500D-05 -0.32290676D-04  0.43191388D-04
  0.32597185D-04 -0.27709390D-03 -0.17424408D-03 -0.27603190D-04 -0.12130113D-05
 -0.76277405D-06 -0.12083622D-06 -0.68404468D-04 -0.43014565D-04 -0.68142298D-05
  0.14622243D-02  0.14141997D-02  0.44074426D-03  0.86301440D-03 -0.11543515D-02
 -0.87120628D-03  0.38807427D-02  0.24403151D-02  0.38658692D-03 -0.11115225D-02
 -0.69895515D-03 -0.11072624D-03 -0.65292332D-03 -0.41057570D-03 -0.65042089D-04
  0.26594131D-04  0.25720686D-04  0.80160144D-05  0.74940309D-05 -0.10023872D-04
 -0.75651656D-05  0.36958348D-04  0.23240401D-04  0.36816699D-05  0.31149295D-04
  0.19587513D-04  0.31029911D-05  0.61127710D-04  0.38438744D-04  0.60893429D-05
  0.19052533D-06  0.18426781D-06  0.57428227D-07 -0.63850781D-06  0.85405578D-06
  0.64456864D-06 -0.37694412D-06 -0.23703258D-06 -0.37549943D-07 -0.21118622D-05
 -0.13279956D-05 -0.21037681D-06 -0.66258788D-05 -0.41665304D-05 -0.66004842D-06
  0.13070879D-05  0.12641585D-05  0.39398300D-06 -0.11034874D-05  0.14760035D-05
  0.11139618D-05  0.26715992D-05  0.16799733D-05  0.26613599D-06 -0.59472038D-05
 -0.37397614D-05 -0.59244103D-06  0.10313823D-05  0.64856089D-06  0.10274294D-06
  0.15780346D-05  0.15262064D-05  0.47565186D-06 -0.41411704D-04  0.55391499D-04
  0.41804791D-04 -0.79376673D-04 -0.49914182D-04 -0.79072451D-05  0.17370928D-03
  0.10923306D-03  0.17304352D-04  0.70748641D-04  0.44488644D-04  0.70477487D-05
  0.12664914D-06  0.12248954D-06  0.38174638D-07  0.20192753D-06 -0.27009439D-06
 -0.20384427D-06  0.47263206D-06  0.29720372D-06  0.47082063D-07 -0.62141582D-06
 -0.39076294D-06 -0.61903415D-07  0.10271504D-06  0.64589977D-07  0.10232137D-07
  0.25806955D-06  0.24959363D-06  0.77787434D-07  0.39174447D-06 -0.52398988D-06
 -0.39546298D-06  0.99269048D-06  0.62423041D-06  0.98888585D-07 -0.23922773D-06
 -0.15043281D-06 -0.23831085D-07 -0.14177358D-05 -0.89151034D-06 -0.14123022D-06
 -0.48045845D-07 -0.46467850D-07 -0.14481999D-07 -0.71157179D-07  0.95178476D-07
  0.71832616D-07 -0.19791250D-06 -0.12445269D-06 -0.19715397D-07  0.10072102D-06
  0.63336078D-07  0.10033499D-07  0.13193168D-07  0.82962182D-08  0.13142603D-08
  0.35938511D-04  0.34758163D-04  0.10832601D-04  0.51716606D-04  0.50018050D-04
  0.15588441D-04  0.70276954D-04  0.67968810D-04  0.21182909D-04 -0.12226800D-05
 -0.11825229D-05 -0.36854073D-06 -0.20715323D-05 -0.20034959D-05 -0.62440216D-06
 -0.19692763D-02 -0.19045983D-02 -0.59358009D-03 -0.19633099D-02 -0.18988278D-02
 -0.59178169D-03 -0.52045240D-09 -0.50335890D-09 -0.15687498D-09  0.92000151D-09
  0.88978540D-09  0.27730725D-09  0.26890094D-06  0.26006928D-06  0.81052235D-07
 -0.61298604D-08 -0.59285341D-08 -0.18476651D-08
MO    5     MO 0.0        OCC NO =    2.0000000  ORB. ENERGY =  -10.481823
  0.21539072D-02  0.20831653D-02  0.64923162D-03  0.11746607D-02 -0.15712036D-02
 -0.11858108D-02  0.30091799D-02  0.18922530D-02  0.29976467D-03 -0.24918039D-02
 -0.15669131D-02 -0.24822537D-03 -0.40483151D-02 -0.25456892D-02 -0.40327994D-03
 -0.29341924D-06 -0.28378231D-06 -0.88442551D-07 -0.12261012D-06  0.16400095D-06
  0.12377396D-06 -0.32138120D-06 -0.20209312D-06 -0.32014946D-07  0.66042237D-07
  0.41529131D-07  0.65789121D-08  0.25653951D-06  0.16131893D-06  0.25555629D-07
  0.16706746D-02  0.16158037D-02  0.50357544D-03  0.16164185D-02 -0.21620904D-02
 -0.16317619D-02 -0.20361285D-02 -0.12803722D-02 -0.20283247D-03 -0.25035747D-02
 -0.15743150D-02 -0.24939794D-03  0.29536225D-02  0.18573171D-02  0.29423024D-03
  0.36158111D-04  0.34970551D-04  0.10898793D-04 -0.63975238D-04  0.85572049D-04
  0.64582502D-04  0.13403254D-03  0.84283260D-04  0.13351884D-04  0.27910081D-03
  0.17550608D-03  0.27803111D-04  0.18433881D-03  0.11591719D-03  0.18363230D-04
 -0.12738401D-02 -0.12320027D-02 -0.38396141D-03 -0.22291550D-04  0.29816749D-04
  0.22503145D-04 -0.58319227D-04 -0.36672695D-04 -0.58095711D-05  0.28550426D-03
  0.17953274D-03  0.28441002D-04  0.10073873D-04  0.63347219D-05  0.10035264D-05
 -0.16370722D-01 -0.15833049D-01 -0.49344699D-02  0.98558030D-03 -0.13182933D-02
 -0.99493560D-03  0.22174978D-04  0.13944221D-04  0.22089989D-05  0.40180272D-02
  0.25266434D-02  0.40026276D-03 -0.95332479D-04 -0.59947621D-04 -0.94967104D-05
 -0.75972428D-03 -0.73477225D-03 -0.22899642D-03  0.15310966D-04 -0.20479654D-04
 -0.15456300D-04  0.11216598D-03  0.70532977D-04  0.11173609D-04  0.16213801D-03
  0.10195673D-03  0.16151659D-04  0.63078940D-04  0.39665730D-04  0.62837181D-05
 -0.41754993D-03 -0.40383612D-03 -0.12585808D-03 -0.48510235D-05  0.64886358D-05
  0.48970703D-05  0.11401384D-03  0.71694959D-04  0.11357686D-04  0.32448187D-04
  0.20404291D-04  0.32323825D-05  0.12619977D-03  0.79357803D-04  0.12571609D-04
  0.27924610D-04  0.27007467D-04  0.84170478D-05  0.18185482D-05 -0.24324551D-05
 -0.18358102D-05 -0.87536572D-05 -0.55045346D-05 -0.87201076D-06 -0.16676831D-04
 -0.10486839D-04 -0.16612915D-05 -0.29134011D-04 -0.18320248D-04 -0.29022351D-05
  0.26861716D+01  0.25979482D+01  0.80966699D+00 -0.55250529D-02  0.73902046D-02
  0.55774977D-02 -0.19662249D-03 -0.12364150D-03 -0.19586890D-04 -0.38254921D-03
 -0.24055721D-03 -0.38108303D-04  0.41683787D-03  0.26211884D-03  0.41524027D-04
  0.77141974D-05  0.74608358D-05  0.23252167D-05  0.37064654D-05 -0.49576969D-05
 -0.37416478D-05  0.89646577D-06  0.56372173D-06  0.89302994D-07 -0.19768773D-04
 -0.12431135D-04 -0.19693006D-05 -0.24242347D-04 -0.15244238D-04 -0.24149434D-05
  0.80772018D-07  0.78119179D-07  0.24346336D-07  0.62447484D-07 -0.83528554D-07
 -0.63040246D-07  0.54476832D-06  0.34256494D-06  0.54268042D-07  0.89895235D-06
  0.56528536D-06  0.89550698D-07  0.21334570D-05  0.13415750D-05  0.21252802D-06
  0.49018178D-05  0.47408248D-05  0.14775080D-05 -0.17814823D-06  0.23828765D-06
  0.17983924D-06 -0.10948127D-05 -0.68844762D-06 -0.10906167D-06  0.12060761D-05
  0.75841302D-06  0.12014536D-06  0.12556619D-05  0.78959391D-06  0.12508494D-06
 -0.53176344D-04 -0.51429845D-04 -0.16028436D-04 -0.55177157D-04 -0.53364944D-04
 -0.16631522D-04 -0.36560865D-05 -0.35360077D-05 -0.11020191D-05 -0.69467434D-04
 -0.67185877D-04 -0.20938903D-04  0.39441772D-06  0.38146365D-06  0.11888556D-06
 -0.45301689D-04 -0.43813821D-04 -0.13654854D-04 -0.12200553D-03 -0.11799844D-03
 -0.36774960D-04  0.14409149D-05  0.13935901D-05  0.43432118D-06  0.96260664D-07
  0.93099124D-07  0.29014930D-07 -0.44167622D-03 -0.42717001D-03 -0.13313023D-03
 -0.12692403D-06 -0.12275540D-06 -0.38257497D-07
MO    6     MO 0.0        OCC NO =    2.0000000  ORB. ENERGY =  -10.428963
 -0.14086497D-06 -0.13623847D-06 -0.42459579D-07 -0.23593710D-07  0.31558493D-07
  0.23817665D-07  0.31641213D-06  0.19896844D-06  0.31519943D-07  0.22984854D-06
  0.14453493D-06  0.22896761D-07  0.20705627D-06  0.13020254D-06  0.20626270D-07
  0.22390552D-02  0.21655167D-02  0.67489696D-03  0.12170118D-02 -0.16278516D-02
 -0.12285639D-02  0.52313081D-02  0.32895869D-02  0.52112583D-03 -0.19981113D-02
 -0.12564660D-02 -0.19904533D-03 -0.80844442D-03 -0.50837155D-03 -0.80534594D-04
 -0.96120246D-07 -0.92963317D-07 -0.28972605D-07  0.17613966D-08 -0.23560103D-08
 -0.17781161D-08  0.75818861D-07  0.47676935D-07  0.75528275D-08 -0.13619352D-06
 -0.85642137D-07 -0.13567153D-07  0.32759100D-06  0.20599801D-06  0.32633546D-07
 -0.10744009D-06 -0.10391138D-06 -0.32384638D-07 -0.72862970D-07  0.97460109D-07
  0.73554598D-07 -0.17286632D-06 -0.10870298D-06 -0.17220378D-07 -0.11480449D-06
 -0.72192145D-07 -0.11436449D-07 -0.28073701D-06 -0.17653496D-06 -0.27966104D-07
 -0.21874208D-03 -0.21155781D-03 -0.65933330D-04  0.71122814D-05 -0.95132509D-05
 -0.71797924D-05 -0.23745868D-04 -0.14932039D-04 -0.23654859D-05  0.65215518D-05
  0.41009268D-05  0.64965570D-06  0.28084808D-05  0.17660481D-05  0.27977169D-06
  0.14831743D-05  0.14344616D-05  0.44705903D-06 -0.23689503D-06  0.31686624D-06
  0.23914368D-06  0.19584665D-05  0.12315363D-05  0.19509604D-06 -0.27548114D-07
 -0.17322993D-07 -0.27442532D-08  0.78396097D-06  0.49297570D-06  0.78095633D-07
 -0.14443680D-02 -0.13969298D-02 -0.43536200D-03  0.22535426D-04 -0.30142953D-04
 -0.22749336D-04 -0.15980601D-03 -0.10049031D-03 -0.15919353D-04  0.50285359D-04
  0.31620783D-04  0.50092633D-05  0.32723230D-04  0.20577245D-04  0.32597814D-05
 -0.95681391D-03 -0.92538876D-03 -0.28840326D-03 -0.46489168D-04  0.62183019D-04
  0.46930452D-04  0.67786492D-04  0.42625966D-04  0.67526691D-05 -0.14402528D-05
 -0.90566964D-06 -0.14347329D-06 -0.28371147D-04 -0.17840539D-04 -0.28262410D-05
 -0.94639459D-03 -0.91531164D-03 -0.28526266D-03 -0.45816445D-04  0.61283197D-04
  0.46251343D-04  0.57869510D-04  0.36389901D-04  0.57647717D-05 -0.42138808D-04
 -0.26498013D-04 -0.41977305D-05  0.63687781D-05  0.40048585D-05  0.63443688D-06
 -0.62888807D-05 -0.60823317D-05 -0.18955971D-05 -0.60177022D-07  0.80491629D-07
  0.60748233D-07  0.39047682D-06  0.24554230D-06  0.38898026D-07 -0.13300019D-06
 -0.83634091D-07 -0.13249045D-07  0.50261650D-06  0.31605874D-06  0.50069015D-07
 -0.72976804D-02 -0.70579988D-02 -0.21996699D-02  0.13221511D-02 -0.17684839D-02
 -0.13347012D-02 -0.26559836D-02 -0.16701537D-02 -0.26458041D-03 -0.24214725D-02
 -0.15226869D-02 -0.24121919D-03  0.29836249D-02  0.18761834D-02  0.29721897D-03
 -0.74598097D-02 -0.72148032D-02 -0.22485390D-02  0.13236092D-02 -0.17704343D-02
 -0.13361731D-02 -0.17153101D-02 -0.10786330D-02 -0.17087359D-03  0.38534589D-02
  0.24231584D-02  0.38386900D-03 -0.21247891D-02 -0.13361244D-02 -0.21166455D-03
  0.26851420D+01  0.25969525D+01  0.80935666D+00 -0.61182922D-02  0.81837101D-02
  0.61763681D-02 -0.13559988D-02 -0.85268844D-03 -0.13508018D-03  0.49974821D-03
  0.31425508D-03  0.49783285D-04  0.23793414D-03  0.14961937D-03  0.23702222D-04
  0.14923641D-05  0.14433496D-05  0.44982902D-06  0.13650616D-05  0.13202282D-05
  0.41145746D-06  0.25806562D-06  0.24958983D-06  0.77786248D-07 -0.22855870D-04
 -0.22105203D-04 -0.68892261D-05 -0.22323243D-04 -0.21590069D-04 -0.67286814D-05
 -0.12902482D-06 -0.12478718D-06 -0.38890715D-07 -0.80083638D-07 -0.77453408D-07
 -0.24138844D-07  0.36630557D-04  0.35427480D-04  0.11041198D-04  0.18069054D-04