 Entering Gaussian System, Link 0=/opt/g16//g16.exe
 Input=alanine_m062X_def2TZVP.com
 Output=alanine_m062X_def2TZVP.log
 Initial command:
 /opt/g16/l1.exe "/scratch/Gau-20006.inp" -scrdir="/scratch/"
 Default is to use a total of   8 processors:
                                8 via shared-memory
                                1 via Linda
 Entering Link 1 = /opt/g16/l1.exe PID=     20007.
  
 Copyright (c) 1988,1990,1992,1993,1995,1998,2003,2009,2016,
            Gaussian, Inc.  All Rights Reserved.
  
 This is part of the Gaussian(R) 16 program.  It is based on
 the Gaussian(R) 09 system (copyright 2009, Gaussian, Inc.),
 the Gaussian(R) 03 system (copyright 2003, Gaussian, Inc.),
 the Gaussian(R) 98 system (copyright 1998, Gaussian, Inc.),
 the Gaussian(R) 94 system (copyright 1995, Gaussian, Inc.),
 the Gaussian 92(TM) system (copyright 1992, Gaussian, Inc.),
 the Gaussian 90(TM) system (copyright 1990, Gaussian, Inc.),
 the Gaussian 88(TM) system (copyright 1988, Gaussian, Inc.),
 the Gaussian 86(TM) system (copyright 1986, Carnegie Mellon
 University), and the Gaussian 82(TM) system (copyright 1983,
 Carnegie Mellon University). Gaussian is a federally registered
 trademark of Gaussian, Inc.
  
 This software contains proprietary and confidential information,
 including trade secrets, belonging to Gaussian, Inc.
  
 This software is provided under written license and may be
 used, copied, transmitted, or stored only in accord with that
 written license.
  
 The following legend is applicable only to US Government
 contracts under FAR:
  
                    RESTRICTED RIGHTS LEGEND
  
 Use, reproduction and disclosure by the US Government is
 subject to restrictions as set forth in subparagraphs (a)
 and (c) of the Commercial Computer Software - Restricted
 Rights clause in FAR 52.227-19.
  
 Gaussian, Inc.
 340 Quinnipiac St., Bldg. 40, Wallingford CT 06492
  
  
 ---------------------------------------------------------------
 Warning -- This program may not be used in any manner that
 competes with the business of Gaussian, Inc. or will provide
 assistance to any competitor of Gaussian, Inc.  The licensee
 of this program is prohibited from giving any competitor of
 Gaussian, Inc. access to this program.  By using this program,
 the user acknowledges that Gaussian, Inc. is engaged in the
 business of creating and licensing software in the field of
 computational chemistry and represents and warrants to the
 licensee that it is not a competitor of Gaussian, Inc. and that
 it will not use this program in any manner prohibited above.
 ---------------------------------------------------------------
  

 Cite this work as:
 Gaussian 16, Revision A.03,
 M. J. Frisch, G. W. Trucks, H. B. Schlegel, G. E. Scuseria, 
 M. A. Robb, J. R. Cheeseman, G. Scalmani, V. Barone, 
 G. A. Petersson, H. Nakatsuji, X. Li, M. Caricato, A. V. Marenich, 
 J. Bloino, B. G. Janesko, R. Gomperts, B. Mennucci, H. P. Hratchian, 
 J. V. Ortiz, A. F. Izmaylov, J. L. Sonnenberg, D. Williams-Young, 
 F. Ding, F. Lipparini, F. Egidi, J. Goings, B. Peng, A. Petrone, 
 T. Henderson, D. Ranasinghe, V. G. Zakrzewski, J. Gao, N. Rega, 
 G. Zheng, W. Liang, M. Hada, M. Ehara, K. Toyota, R. Fukuda, 
 J. Hasegawa, M. Ishida, T. Nakajima, Y. Honda, O. Kitao, H. Nakai, 
 T. Vreven, K. Throssell, J. A. Montgomery, Jr., J. E. Peralta, 
 F. Ogliaro, M. J. Bearpark, J. J. Heyd, E. N. Brothers, K. N. Kudin, 
 V. N. Staroverov, T. A. Keith, R. Kobayashi, J. Normand, 
 K. Raghavachari, A. P. Rendell, J. C. Burant, S. S. Iyengar, 
 J. Tomasi, M. Cossi, J. M. Millam, M. Klene, C. Adamo, R. Cammi, 
 J. W. Ochterski, R. L. Martin, K. Morokuma, O. Farkas, 
 J. B. Foresman, and D. J. Fox, Gaussian, Inc., Wallingford CT, 2016.
 
 ******************************************
 Gaussian 16:  ES64L-G16RevA.03 25-Dec-2016
                13-Feb-2024 
 ******************************************
 %chk=alanine_m062X_def2TZVP.chk
 Default route: Maxdisk=600Gb
 ---------------------------------------------------------------
 #p freq m062X def2TZVP output=wfn geom=allcheckpoint guess=read
 ---------------------------------------------------------------
 1/10=4,29=7,30=1,38=1/1,3;
 2/12=2,40=1/2;
 3/5=44,7=101,11=2,14=-4,25=1,30=1,71=2,74=-55,116=-2,140=1/1,2,3;
 4/5=1/1;
 5/5=2,38=6,98=1/2;
 8/6=4,10=90,11=11/1;
 11/6=1,8=1,9=11,15=111,16=1/1,2,10;
 10/6=1/2;
 6/7=2,8=2,9=2,10=2,28=1/1;
 7/8=1,10=1,25=1/1,2,3,16;
 1/10=4,30=1/3;
 99/6=100/99;
 Leave Link    1 at Tue Feb 13 13:52:35 2024, MaxMem=           0 cpu:               0.6 elap:               0.1
 (Enter /opt/g16/l101.exe)
 Structure from the checkpoint file:  "alanine_m062X_def2TZVP.chk"
 --------------------------
 opt alanine M062X def2TZVP
 --------------------------
 Charge =  0 Multiplicity = 1
 Redundant internal coordinates found in file.  (old form).
 O,0,1.4868349913,-0.9204206408,0.4790343607
 O,0,1.0960557424,0.9003025464,-0.7540970943
 N,0,-1.4120989384,1.1459616143,0.2957249225
 C,0,-0.7492970386,-0.1403852357,0.3906893947
 C,0,-1.3520557173,-1.2453791675,-0.4877239076
 C,0,0.6936064348,0.0406169642,-0.0221980896
 H,0,-0.7507243651,-0.4775333073,1.4297694848
 H,0,-0.8178995517,-2.1878627009,-0.3652945192
 H,0,-2.3944614358,-1.4020452935,-0.2087128804
 H,0,-1.3158642804,-0.9481316664,-1.5372799135
 H,0,-2.4151584699,1.0295615249,0.2327075329
 H,0,-1.0902571536,1.6355387554,-0.5321832243
 H,0,2.3771197824,-0.770323393,0.1293639334
 Recover connectivity data from disk.
 ITRead=  0  0  0  0  0  0  0  0  0  0  0  0  0
 MicOpt= -1 -1 -1 -1 -1 -1 -1 -1 -1 -1 -1 -1 -1
 NAtoms=     13 NQM=       13 NQMF=       0 NMMI=      0 NMMIF=      0
                NMic=       0 NMicF=      0.
                    Isotopes and Nuclear Properties:
 (Nuclear quadrupole moments (NQMom) in fm**2, nuclear magnetic moments (NMagM)
  in nuclear magnetons)

  Atom         1           2           3           4           5           6           7           8           9          10
 IAtWgt=          16          16          14          12          12          12           1           1           1           1
 AtmWgt=  15.9949146  15.9949146  14.0030740  12.0000000  12.0000000  12.0000000   1.0078250   1.0078250   1.0078250   1.0078250
 NucSpn=           0           0           2           0           0           0           1           1           1           1
 AtZEff=   5.6000000   5.6000000   4.5500000   3.6000000   3.6000000   3.6000000   1.0000000   1.0000000   1.0000000   1.0000000
 NQMom=    0.0000000   0.0000000   2.0440000   0.0000000   0.0000000   0.0000000   0.0000000   0.0000000   0.0000000   0.0000000
 NMagM=    0.0000000   0.0000000   0.4037610   0.0000000   0.0000000   0.0000000   2.7928460   2.7928460   2.7928460   2.7928460
 AtZNuc=   8.0000000   8.0000000   7.0000000   6.0000000   6.0000000   6.0000000   1.0000000   1.0000000   1.0000000   1.0000000

  Atom        11          12          13
 IAtWgt=           1           1           1
 AtmWgt=   1.0078250   1.0078250   1.0078250
 NucSpn=           1           1           1
 AtZEff=   1.0000000   1.0000000   1.0000000
 NQMom=    0.0000000   0.0000000   0.0000000
 NMagM=    2.7928460   2.7928460   2.7928460
 AtZNuc=   1.0000000   1.0000000   1.0000000
 Leave Link  101 at Tue Feb 13 13:52:35 2024, MaxMem=  3221225472 cpu:               4.3 elap:               0.5
 (Enter /opt/g16/l103.exe)

 GradGradGradGradGradGradGradGradGradGradGradGradGradGradGradGradGradGrad
 Berny optimization.
 Initialization pass.
                           ----------------------------
                           !    Initial Parameters    !
                           ! (Angstroms and Degrees)  !
 --------------------------                            --------------------------
 ! Name  Definition              Value          Derivative Info.                !
 --------------------------------------------------------------------------------
 ! R1    R(1,6)                  1.3431         calculate D2E/DX2 analytically  !
 ! R2    R(1,13)                 0.9682         calculate D2E/DX2 analytically  !
 ! R3    R(2,6)                  1.1986         calculate D2E/DX2 analytically  !
 ! R4    R(3,4)                  1.4502         calculate D2E/DX2 analytically  !
 ! R5    R(3,11)                 1.0118         calculate D2E/DX2 analytically  !
 ! R6    R(3,12)                 1.0142         calculate D2E/DX2 analytically  !
 ! R7    R(4,5)                  1.5349         calculate D2E/DX2 analytically  !
 ! R8    R(4,6)                  1.5117         calculate D2E/DX2 analytically  !
 ! R9    R(4,7)                  1.0924         calculate D2E/DX2 analytically  !
 ! R10   R(5,8)                  1.0902         calculate D2E/DX2 analytically  !
 ! R11   R(5,9)                  1.0904         calculate D2E/DX2 analytically  !
 ! R12   R(5,10)                 1.0914         calculate D2E/DX2 analytically  !
 ! A1    A(6,1,13)             107.2986         calculate D2E/DX2 analytically  !
 ! A2    A(4,3,11)             110.8026         calculate D2E/DX2 analytically  !
 ! A3    A(4,3,12)             109.6693         calculate D2E/DX2 analytically  !
 ! A4    A(11,3,12)            108.6197         calculate D2E/DX2 analytically  !
 ! A5    A(3,4,5)              114.9369         calculate D2E/DX2 analytically  !
 ! A6    A(3,4,6)              108.1893         calculate D2E/DX2 analytically  !
 ! A7    A(3,4,7)              109.6            calculate D2E/DX2 analytically  !
 ! A8    A(5,4,6)              107.7413         calculate D2E/DX2 analytically  !
 ! A9    A(5,4,7)              108.7631         calculate D2E/DX2 analytically  !
 ! A10   A(6,4,7)              107.3373         calculate D2E/DX2 analytically  !
 ! A11   A(4,5,8)              111.4495         calculate D2E/DX2 analytically  !
 ! A12   A(4,5,9)              109.4151         calculate D2E/DX2 analytically  !
 ! A13   A(4,5,10)             109.9528         calculate D2E/DX2 analytically  !
 ! A14   A(8,5,9)              108.3874         calculate D2E/DX2 analytically  !
 ! A15   A(8,5,10)             109.0977         calculate D2E/DX2 analytically  !
 ! A16   A(9,5,10)             108.4748         calculate D2E/DX2 analytically  !
 ! A17   A(1,6,2)              122.8719         calculate D2E/DX2 analytically  !
 ! A18   A(1,6,4)              112.0926         calculate D2E/DX2 analytically  !
 ! A19   A(2,6,4)              124.9692         calculate D2E/DX2 analytically  !
 ! D1    D(13,1,6,2)            -0.6274         calculate D2E/DX2 analytically  !
 ! D2    D(13,1,6,4)           176.5427         calculate D2E/DX2 analytically  !
 ! D3    D(11,3,4,5)            39.1312         calculate D2E/DX2 analytically  !
 ! D4    D(11,3,4,6)           159.5623         calculate D2E/DX2 analytically  !
 ! D5    D(11,3,4,7)           -83.6963         calculate D2E/DX2 analytically  !
 ! D6    D(12,3,4,5)           -80.7706         calculate D2E/DX2 analytically  !
 ! D7    D(12,3,4,6)            39.6605         calculate D2E/DX2 analytically  !
 ! D8    D(12,3,4,7)           156.4019         calculate D2E/DX2 analytically  !
 ! D9    D(3,4,5,8)           -179.4474         calculate D2E/DX2 analytically  !
 ! D10   D(3,4,5,9)            -59.5913         calculate D2E/DX2 analytically  !
 ! D11   D(3,4,5,10)            59.4475         calculate D2E/DX2 analytically  !
 ! D12   D(6,4,5,8)             59.8754         calculate D2E/DX2 analytically  !
 ! D13   D(6,4,5,9)            179.7315         calculate D2E/DX2 analytically  !
 ! D14   D(6,4,5,10)           -61.2297         calculate D2E/DX2 analytically  !
 ! D15   D(7,4,5,8)            -56.1724         calculate D2E/DX2 analytically  !
 ! D16   D(7,4,5,9)             63.6836         calculate D2E/DX2 analytically  !
 ! D17   D(7,4,5,10)          -177.2776         calculate D2E/DX2 analytically  !
 ! D18   D(3,4,6,1)            157.2236         calculate D2E/DX2 analytically  !
 ! D19   D(3,4,6,2)            -25.6768         calculate D2E/DX2 analytically  !
 ! D20   D(5,4,6,1)            -77.9508         calculate D2E/DX2 analytically  !
 ! D21   D(5,4,6,2)             99.1487         calculate D2E/DX2 analytically  !
 ! D22   D(7,4,6,1)             39.0284         calculate D2E/DX2 analytically  !
 ! D23   D(7,4,6,2)           -143.8721         calculate D2E/DX2 analytically  !
 --------------------------------------------------------------------------------
 Trust Radius=3.00D-01 FncErr=1.00D-07 GrdErr=1.00D-07 EigMax=2.50D+02 EigMin=1.00D-04
 Number of steps in this run=      2 maximum allowed number of steps=      2.
 GradGradGradGradGradGradGradGradGradGradGradGradGradGradGradGradGradGrad

 Leave Link  103 at Tue Feb 13 13:52:35 2024, MaxMem=  3221225472 cpu:               0.1 elap:               0.0
 (Enter /opt/g16/l202.exe)
                          Input orientation:                          
 ---------------------------------------------------------------------
 Center     Atomic      Atomic             Coordinates (Angstroms)
 Number     Number       Type             X           Y           Z
 ---------------------------------------------------------------------
      1          8           0        1.486835   -0.920421    0.479034
      2          8           0        1.096056    0.900303   -0.754097
      3          7           0       -1.412099    1.145962    0.295725
      4          6           0       -0.749297   -0.140385    0.390689
      5          6           0       -1.352056   -1.245379   -0.487724
      6          6           0        0.693606    0.040617   -0.022198
      7          1           0       -0.750724   -0.477533    1.429769
      8          1           0       -0.817900   -2.187863   -0.365295
      9          1           0       -2.394461   -1.402045   -0.208713
     10          1           0       -1.315864   -0.948132   -1.537280
     11          1           0       -2.415158    1.029562    0.232708
     12          1           0       -1.090257    1.635539   -0.532183
     13          1           0        2.377120   -0.770323    0.129364
 ---------------------------------------------------------------------
                    Distance matrix (angstroms):
                    1          2          3          4          5
     1  O    0.000000
     2  O    2.233462   0.000000
     3  N    3.564738   2.730076   0.000000
     4  C    2.369925   2.408089   1.450177   0.000000
     5  C    3.016541   3.266214   2.517123   1.534907   0.000000
     6  C    1.343145   1.198625   2.399345   1.511691   2.460739
     7  H    2.471178   3.174634   2.087872   1.092409   2.151271
     8  H    2.762445   3.653923   3.450276   2.183663   1.090223
     9  H    3.971073   4.216866   2.777019   2.158155   1.090413
    10  H    3.452740   3.138064   2.784671   2.165760   1.091437
    11  H    4.369057   3.649536   1.011755   2.041771   2.612387
    12  H    3.767877   2.317279   1.014248   2.030235   2.893130
    13  H    0.968197   2.283116   4.249471   3.199937   3.809623
                    6          7          8          9         10
     6  C    0.000000
     7  H    2.112530   0.000000
     8  H    2.714496   2.480321   0.000000
     9  H    3.413536   2.498243   1.768495   0.000000
    10  H    2.703899   3.056833   1.777203   1.770452   0.000000
    11  H    3.272218   2.544530   3.641519   2.471435   2.872729
    12  H    2.446636   2.903380   3.836721   3.321521   2.781451
    13  H    1.874783   3.400028   3.530192   4.825076   4.055545
                   11         12         13
    11  H    0.000000
    12  H    1.645488   0.000000
    13  H    5.120175   4.271829   0.000000
 Stoichiometry    C3H7NO2
 Framework group  C1[X(C3H7NO2)]
 Deg. of freedom    33
 Full point group                 C1      NOp   1
 RotChk:  IX=0 Diff= 7.37D-16
 Largest Abelian subgroup         C1      NOp   1
 Largest concise Abelian subgroup C1      NOp   1
                         Standard orientation:                         
 ---------------------------------------------------------------------
 Center     Atomic      Atomic             Coordinates (Angstroms)
 Number     Number       Type             X           Y           Z
 ---------------------------------------------------------------------
      1          8           0        1.642628    0.747641   -0.449462
      2          8           0        1.088154   -1.119978    0.642744
      3          7           0       -1.425485   -1.067090   -0.421275
      4          6           0       -0.653168    0.160320   -0.419107
      5          6           0       -1.163205    1.244153    0.540638
      6          6           0        0.766115   -0.175899   -0.021867
      7          1           0       -0.619122    0.573643   -1.429732
      8          1           0       -0.548674    2.143221    0.489501
      9          1           0       -2.186418    1.511330    0.274834
     10          1           0       -1.159224    0.866658    1.564706
     11          1           0       -2.415049   -0.869098   -0.349094
     12          1           0       -1.152261   -1.643747    0.367087
     13          1           0        2.514439    0.494876   -0.112621
 ---------------------------------------------------------------------
 Rotational constants (GHZ):           5.1115347           3.1182370           2.3507359
 Leave Link  202 at Tue Feb 13 13:52:35 2024, MaxMem=  3221225472 cpu:               0.0 elap:               0.0
 (Enter /opt/g16/l301.exe)
 Standard basis: def2TZVP (5D, 7F)
 Ernie: Thresh=  0.10000D-02 Tol=  0.10000D-05 Strict=F.
 There are   258 symmetry adapted cartesian basis functions of A   symmetry.
 There are   228 symmetry adapted basis functions of A   symmetry.
   228 basis functions,   362 primitive gaussians,   258 cartesian basis functions
    24 alpha electrons       24 beta electrons
       nuclear repulsion energy       250.9697555527 Hartrees.
 IExCor= 4336 DFT=T Ex+Corr=M062X ExCW=0 ScaHFX=  0.540000
 ScaDFX=  1.000000  1.000000  1.000000  1.000000 ScalE2=  1.000000  1.000000
 IRadAn=      5 IRanWt=     -1 IRanGd=            0 ICorTp=0 IEmpDi=  4
 NAtoms=   13 NActive=   13 NUniq=   13 SFac= 1.00D+00 NAtFMM=   60 NAOKFM=F Big=F
 Integral buffers will be    131072 words long.
 Raffenetti 2 integral format.
 Two-electron integral symmetry is turned on.
 Leave Link  301 at Tue Feb 13 13:52:35 2024, MaxMem=  3221225472 cpu:               0.6 elap:               0.1
 (Enter /opt/g16/l302.exe)
 NPDir=0 NMtPBC=     1 NCelOv=     1 NCel=       1 NClECP=     1 NCelD=      1
         NCelK=      1 NCelE2=     1 NClLst=     1 CellRange=     0.0.
 One-electron integrals computed using PRISM.
 One-electron integral symmetry used in STVInt
   1 Symmetry operations used in ECPInt.
 ECPInt:  NShTT=    4465 NPrTT=   13356 LenC2=    4423 LenP2D=   10978.
 LDataN:  DoStor=T MaxTD1= 6 Len=  172
 NBasis=   228 RedAO= T EigKep=  2.11D-04  NBF=   228
 NBsUse=   228 1.00D-06 EigRej= -1.00D+00 NBFU=   228
 Precomputing XC quadrature grid using
 IXCGrd= 4 IRadAn=           5 IRanWt=          -1 IRanGd=           0 AccXCQ= 0.00D+00.
 Generated NRdTot=       0 NPtTot=           0 NUsed=           0 NTot=          32
 NSgBfM=   257   257   257   257   257 MxSgAt=    13 MxSgA2=    13.
 Leave Link  302 at Tue Feb 13 13:52:36 2024, MaxMem=  3221225472 cpu:               2.8 elap:               0.4
 (Enter /opt/g16/l303.exe)
 DipDrv:  MaxL=1.
 Leave Link  303 at Tue Feb 13 13:52:36 2024, MaxMem=  3221225472 cpu:               0.5 elap:               0.1
 (Enter /opt/g16/l401.exe)
 Initial guess from the checkpoint file:  "alanine_m062X_def2TZVP.chk"
 B after Tr=    -0.000000   -0.000000   -0.000000
         Rot=    1.000000    0.000000   -0.000000    0.000000 Ang=   0.00 deg.
 Guess basis will be translated and rotated to current coordinates.
 JPrj=2 DoOrth=T DoCkMO=T.
 Leave Link  401 at Tue Feb 13 13:52:36 2024, MaxMem=  3221225472 cpu:               1.3 elap:               0.2
 (Enter /opt/g16/l502.exe)
 Integral symmetry usage will be decided dynamically.
 Closed shell SCF:
 Using DIIS extrapolation, IDIIS=  1040.
 NGot=  3221225472 LenX=  3221087835 LenY=  3221020830
 Requested convergence on RMS density matrix=1.00D-08 within 128 cycles.
 Requested convergence on MAX density matrix=1.00D-06.
 Requested convergence on             energy=1.00D-06.
 No special actions if energy rises.
 Fock matrices will be formed incrementally for  20 cycles.

 Cycle   1  Pass 1  IDiag  1:
 FoFJK:  IHMeth= 1 ICntrl=       0 DoSepK=F KAlg= 0 I1Cent=           0 FoldK=F
 IRaf= 980000000 NMat=       1 IRICut=       1 DoRegI=T DoRafI=F ISym2E= 0 IDoP0=0 IntGTp=1.
 FoFCou: FMM=F IPFlag=           0 FMFlag=      100000 FMFlg1=           0
         NFxFlg=           0 DoJE=F BraDBF=F KetDBF=F FulRan=T
         wScrn=  0.000000 ICntrl=         0 IOpCl=  0 I1Cent=           0 NGrid=           0
         NMat0=    1 NMatS0=      1 NMatT0=    0 NMatD0=    1 NMtDS0=    0 NMtDT0=    0
 Symmetry not used in FoFCou.
 E= -323.727294287225    
 DIIS: error= 1.15D-02 at cycle   1 NSaved=   1.
 NSaved= 1 IEnMin= 1 EnMin= -323.727294287225     IErMin= 1 ErrMin= 1.15D-02
 ErrMax= 1.15D-02  0.00D+00 EMaxC= 1.00D-01 BMatC= 6.56D-02 BMatP= 6.56D-02
 IDIUse=3 WtCom= 8.85D-01 WtEn= 1.15D-01
 Coeff-Com:  0.100D+01
 Coeff-En:   0.100D+01
 Coeff:      0.100D+01
 Gap=     0.363 Goal=   None    Shift=    0.000
 GapD=    0.363 DampG=1.000 DampE=0.500 DampFc=0.5000 IDamp=-1.
 Damping current iteration by 5.00D-01
 RMSDP=1.08D-03 MaxDP=2.39D-02              OVMax= 3.12D-02

 Cycle   2  Pass 1  IDiag  1:
 RMSU=  5.32D-04    CP:  9.92D-01
 E= -323.736266188772     Delta-E=       -0.008971901547 Rises=F Damp=T
 DIIS: error= 5.58D-03 at cycle   2 NSaved=   2.
 NSaved= 2 IEnMin= 2 EnMin= -323.736266188772     IErMin= 2 ErrMin= 5.58D-03
 ErrMax= 5.58D-03  0.00D+00 EMaxC= 1.00D-01 BMatC= 1.63D-02 BMatP= 6.56D-02
 IDIUse=3 WtCom= 9.44D-01 WtEn= 5.58D-02
 Coeff-Com: -0.957D+00 0.196D+01
 Coeff-En:   0.000D+00 0.100D+01
 Coeff:     -0.903D+00 0.190D+01
 Gap=     0.358 Goal=   None    Shift=    0.000
 RMSDP=7.44D-04 MaxDP=1.97D-02 DE=-8.97D-03 OVMax= 8.65D-03

 Cycle   3  Pass 1  IDiag  1:
 RMSU=  2.18D-04    CP:  9.81D-01  2.32D+00
 E= -323.745307855946     Delta-E=       -0.009041667174 Rises=F Damp=F
 DIIS: error= 9.02D-04 at cycle   3 NSaved=   3.
 NSaved= 3 IEnMin= 3 EnMin= -323.745307855946     IErMin= 3 ErrMin= 9.02D-04
 ErrMax= 9.02D-04  0.00D+00 EMaxC= 1.00D-01 BMatC= 4.36D-04 BMatP= 1.63D-02
 IDIUse=3 WtCom= 9.91D-01 WtEn= 9.02D-03
 Coeff-Com: -0.415D+00 0.826D+00 0.589D+00
 Coeff-En:   0.000D+00 0.000D+00 0.100D+01
 Coeff:     -0.411D+00 0.818D+00 0.593D+00
 Gap=     0.358 Goal=   None    Shift=    0.000
 RMSDP=7.34D-05 MaxDP=1.86D-03 DE=-9.04D-03 OVMax= 5.40D-03

 Cycle   4  Pass 1  IDiag  1:
 RMSU=  6.49D-05    CP:  9.81D-01  2.29D+00  8.58D-01
 E= -323.745673852587     Delta-E=       -0.000365996641 Rises=F Damp=F
 DIIS: error= 2.51D-04 at cycle   4 NSaved=   4.
 NSaved= 4 IEnMin= 4 EnMin= -323.745673852587     IErMin= 4 ErrMin= 2.51D-04
 ErrMax= 2.51D-04  0.00D+00 EMaxC= 1.00D-01 BMatC= 3.82D-05 BMatP= 4.36D-04
 IDIUse=3 WtCom= 9.97D-01 WtEn= 2.51D-03
 Coeff-Com: -0.128D+00 0.251D+00 0.272D+00 0.605D+00
 Coeff-En:   0.000D+00 0.000D+00 0.000D+00 0.100D+01
 Coeff:     -0.128D+00 0.250D+00 0.271D+00 0.606D+00
 Gap=     0.359 Goal=   None    Shift=    0.000
 RMSDP=2.01D-05 MaxDP=9.25D-04 DE=-3.66D-04 OVMax= 2.63D-03

 Cycle   5  Pass 1  IDiag  1:
 RMSU=  1.71D-05    CP:  9.81D-01  2.30D+00  8.85D-01  8.97D-01
 E= -323.745699011463     Delta-E=       -0.000025158877 Rises=F Damp=F
 DIIS: error= 9.79D-05 at cycle   5 NSaved=   5.
 NSaved= 5 IEnMin= 5 EnMin= -323.745699011463     IErMin= 5 ErrMin= 9.79D-05
 ErrMax= 9.79D-05  0.00D+00 EMaxC= 1.00D-01 BMatC= 5.98D-06 BMatP= 3.82D-05
 IDIUse=1 WtCom= 1.00D+00 WtEn= 0.00D+00
 Coeff-Com:  0.244D-01-0.496D-01 0.179D-01 0.291D+00 0.716D+00
 Coeff:      0.244D-01-0.496D-01 0.179D-01 0.291D+00 0.716D+00
 Gap=     0.359 Goal=   None    Shift=    0.000
 RMSDP=1.58D-05 MaxDP=7.55D-04 DE=-2.52D-05 OVMax= 9.67D-04

 Cycle   6  Pass 1  IDiag  1:
 RMSU=  8.94D-06    CP:  9.81D-01  2.32D+00  9.22D-01  9.78D-01  7.87D-01
 E= -323.745703811824     Delta-E=       -0.000004800361 Rises=F Damp=F
 DIIS: error= 2.49D-05 at cycle   6 NSaved=   6.
 NSaved= 6 IEnMin= 6 EnMin= -323.745703811824     IErMin= 6 ErrMin= 2.49D-05
 ErrMax= 2.49D-05  0.00D+00 EMaxC= 1.00D-01 BMatC= 4.13D-07 BMatP= 5.98D-06
 IDIUse=1 WtCom= 1.00D+00 WtEn= 0.00D+00
 Coeff-Com:  0.185D-01-0.369D-01-0.163D-01 0.492D-01 0.259D+00 0.727D+00
 Coeff:      0.185D-01-0.369D-01-0.163D-01 0.492D-01 0.259D+00 0.727D+00
 Gap=     0.359 Goal=   None    Shift=    0.000
 RMSDP=3.38D-06 MaxDP=1.14D-04 DE=-4.80D-06 OVMax= 3.90D-04

 Cycle   7  Pass 1  IDiag  1:
 RMSU=  2.66D-06    CP:  9.81D-01  2.32D+00  9.27D-01  9.97D-01  8.46D-01
                    CP:  9.75D-01
 E= -323.745704208034     Delta-E=       -0.000000396210 Rises=F Damp=F
 DIIS: error= 1.48D-05 at cycle   7 NSaved=   7.
 NSaved= 7 IEnMin= 7 EnMin= -323.745704208034     IErMin= 7 ErrMin= 1.48D-05
 ErrMax= 1.48D-05  0.00D+00 EMaxC= 1.00D-01 BMatC= 9.42D-08 BMatP= 4.13D-07
 IDIUse=1 WtCom= 1.00D+00 WtEn= 0.00D+00
 Coeff-Com:  0.396D-02-0.784D-02-0.104D-01-0.221D-01-0.116D-02 0.340D+00
 Coeff-Com:  0.698D+00
 Coeff:      0.396D-02-0.784D-02-0.104D-01-0.221D-01-0.116D-02 0.340D+00
 Coeff:      0.698D+00
 Gap=     0.359 Goal=   None    Shift=    0.000
 RMSDP=1.48D-06 MaxDP=5.18D-05 DE=-3.96D-07 OVMax= 9.39D-05

 Cycle   8  Pass 1  IDiag  1:
 RMSU=  7.99D-07    CP:  9.81D-01  2.32D+00  9.29D-01  1.00D+00  8.53D-01
                    CP:  1.09D+00  9.31D-01
 E= -323.745704288967     Delta-E=       -0.000000080933 Rises=F Damp=F
 DIIS: error= 2.88D-06 at cycle   8 NSaved=   8.
 NSaved= 8 IEnMin= 8 EnMin= -323.745704288967     IErMin= 8 ErrMin= 2.88D-06
 ErrMax= 2.88D-06  0.00D+00 EMaxC= 1.00D-01 BMatC= 4.36D-09 BMatP= 9.42D-08
 IDIUse=1 WtCom= 1.00D+00 WtEn= 0.00D+00
 Coeff-Com: -0.957D-03 0.194D-02-0.964D-03-0.717D-02-0.287D-01 0.208D-01
 Coeff-Com:  0.155D+00 0.860D+00
 Coeff:     -0.957D-03 0.194D-02-0.964D-03-0.717D-02-0.287D-01 0.208D-01
 Coeff:      0.155D+00 0.860D+00
 Gap=     0.359 Goal=   None    Shift=    0.000
 RMSDP=4.82D-07 MaxDP=2.18D-05 DE=-8.09D-08 OVMax= 3.72D-05

 Cycle   9  Pass 1  IDiag  1:
 RMSU=  2.64D-07    CP:  9.81D-01  2.32D+00  9.29D-01  1.01D+00  8.51D-01
                    CP:  1.13D+00  9.76D-01  9.94D-01
 E= -323.745704294057     Delta-E=       -0.000000005090 Rises=F Damp=F
 DIIS: error= 1.10D-06 at cycle   9 NSaved=   9.
 NSaved= 9 IEnMin= 9 EnMin= -323.745704294057     IErMin= 9 ErrMin= 1.10D-06
 ErrMax= 1.10D-06  0.00D+00 EMaxC= 1.00D-01 BMatC= 6.88D-10 BMatP= 4.36D-09
 IDIUse=1 WtCom= 1.00D+00 WtEn= 0.00D+00
 Coeff-Com: -0.710D-03 0.142D-02 0.459D-03-0.480D-03-0.129D-01-0.252D-01
 Coeff-Com: -0.173D-01 0.285D+00 0.770D+00
 Coeff:     -0.710D-03 0.142D-02 0.459D-03-0.480D-03-0.129D-01-0.252D-01
 Coeff:     -0.173D-01 0.285D+00 0.770D+00
 Gap=     0.359 Goal=   None    Shift=    0.000
 RMSDP=1.71D-07 MaxDP=4.70D-06 DE=-5.09D-09 OVMax= 1.08D-05

 Cycle  10  Pass 1  IDiag  1:
 RMSU=  9.69D-08    CP:  9.81D-01  2.32D+00  9.30D-01  1.01D+00  8.48D-01
                    CP:  1.14D+00  9.97D-01  1.06D+00  1.18D+00
 E= -323.745704294793     Delta-E=       -0.000000000736 Rises=F Damp=F
 DIIS: error= 3.38D-07 at cycle  10 NSaved=  10.
 NSaved=10 IEnMin=10 EnMin= -323.745704294793     IErMin=10 ErrMin= 3.38D-07
 ErrMax= 3.38D-07  0.00D+00 EMaxC= 1.00D-01 BMatC= 6.58D-11 BMatP= 6.88D-10
 IDIUse=1 WtCom= 1.00D+00 WtEn= 0.00D+00
 Coeff-Com: -0.955D-04 0.191D-03 0.252D-03 0.102D-02-0.438D-03-0.746D-02
 Coeff-Com: -0.218D-01-0.313D-01 0.217D+00 0.843D+00
 Coeff:     -0.955D-04 0.191D-03 0.252D-03 0.102D-02-0.438D-03-0.746D-02
 Coeff:     -0.218D-01-0.313D-01 0.217D+00 0.843D+00
 Gap=     0.359 Goal=   None    Shift=    0.000
 RMSDP=3.99D-08 MaxDP=9.75D-07 DE=-7.36D-10 OVMax= 3.31D-06

 Cycle  11  Pass 1  IDiag  1:
 RMSU=  2.63D-08    CP:  9.81D-01  2.32D+00  9.30D-01  1.01D+00  8.48D-01
                    CP:  1.14D+00  1.00D+00  1.08D+00  1.23D+00  9.44D-01
 E= -323.745704294858     Delta-E=       -0.000000000065 Rises=F Damp=F
 DIIS: error= 7.69D-08 at cycle  11 NSaved=  11.
 NSaved=11 IEnMin=11 EnMin= -323.745704294858     IErMin=11 ErrMin= 7.69D-08
 ErrMax= 7.69D-08  0.00D+00 EMaxC= 1.00D-01 BMatC= 4.61D-12 BMatP= 6.58D-11
 IDIUse=1 WtCom= 1.00D+00 WtEn= 0.00D+00
 Coeff-Com:  0.158D-04-0.319D-04 0.417D-04 0.374D-03 0.647D-03-0.410D-03
 Coeff-Com: -0.585D-02-0.309D-01 0.165D-01 0.280D+00 0.739D+00
 Coeff:      0.158D-04-0.319D-04 0.417D-04 0.374D-03 0.647D-03-0.410D-03
 Coeff:     -0.585D-02-0.309D-01 0.165D-01 0.280D+00 0.739D+00
 Gap=     0.359 Goal=   None    Shift=    0.000
 RMSDP=1.51D-08 MaxDP=5.70D-07 DE=-6.48D-11 OVMax= 6.06D-07

 Cycle  12  Pass 1  IDiag  1:
 RMSU=  6.68D-09    CP:  9.81D-01  2.32D+00  9.30D-01  1.01D+00  8.48D-01
                    CP:  1.14D+00  1.00D+00  1.08D+00  1.26D+00  9.98D-01
                    CP:  8.82D-01
 E= -323.745704294861     Delta-E=       -0.000000000003 Rises=F Damp=F
 DIIS: error= 2.89D-08 at cycle  12 NSaved=  12.
 NSaved=12 IEnMin=12 EnMin= -323.745704294861     IErMin=12 ErrMin= 2.89D-08
 ErrMax= 2.89D-08  0.00D+00 EMaxC= 1.00D-01 BMatC= 4.68D-13 BMatP= 4.61D-12
 IDIUse=1 WtCom= 1.00D+00 WtEn= 0.00D+00
 Coeff-Com:  0.136D-04-0.274D-04-0.524D-05 0.741D-04 0.289D-03 0.480D-03
 Coeff-Com: -0.561D-03-0.937D-02-0.108D-01 0.373D-01 0.270D+00 0.713D+00
 Coeff:      0.136D-04-0.274D-04-0.524D-05 0.741D-04 0.289D-03 0.480D-03
 Coeff:     -0.561D-03-0.937D-02-0.108D-01 0.373D-01 0.270D+00 0.713D+00
 Gap=     0.359 Goal=   None    Shift=    0.000
 RMSDP=2.92D-09 MaxDP=7.16D-08 DE=-2.50D-12 OVMax= 1.84D-07

 SCF Done:  E(RM062X) =  -323.745704295     A.U. after   12 cycles
            NFock= 12  Conv=0.29D-08     -V/T= 2.0044
 KE= 3.223226784233D+02 PE=-1.260067032163D+03 EE= 3.630288938925D+02
 Leave Link  502 at Tue Feb 13 13:53:04 2024, MaxMem=  3221225472 cpu:             218.8 elap:              27.4
 (Enter /opt/g16/l801.exe)
 DoSCS=F DFT=T ScalE2(SS,OS)=  1.000000  1.000000
 Range of M.O.s used for correlation:     1   228
 NBasis=   228 NAE=    24 NBE=    24 NFC=     0 NFV=     0
 NROrb=    228 NOA=    24 NOB=    24 NVA=   204 NVB=   204

 **** Warning!!: The largest alpha MO coefficient is  0.17672216D+02

 Leave Link  801 at Tue Feb 13 13:53:04 2024, MaxMem=  3221225472 cpu:               0.4 elap:               0.1
 (Enter /opt/g16/l1101.exe)
 Using compressed storage, NAtomX=    13.
 Will process     14 centers per pass.
   1 Symmetry operations used in ECPInt.
 ECPInt:  NShTT=    4465 NPrTT=   13356 LenC2=    4423 LenP2D=   10978.
 LDataN:  DoStor=T MaxTD1= 7 Len=  274
 Leave Link 1101 at Tue Feb 13 13:53:04 2024, MaxMem=  3221225472 cpu:               2.4 elap:               0.3
 (Enter /opt/g16/l1102.exe)
 Symmetrizing basis deriv contribution to polar:
 IMax=3 JMax=2 DiffMx= 0.00D+00
 Leave Link 1102 at Tue Feb 13 13:53:04 2024, MaxMem=  3221225472 cpu:               0.5 elap:               0.1
 (Enter /opt/g16/l1110.exe)
 Forming Gx(P) for the SCF density, NAtomX=    13.
 Integral derivatives from FoFJK, PRISM(SPDF).
 Do as many integral derivatives as possible in FoFJK.
 G2DrvN: MDV=    3221224400.
 G2DrvN: will do    14 centers at a time, making    1 passes.
 Calling FoFCou, ICntrl=  3107 FMM=F I1Cent=   0 AccDes= 0.00D+00.
 FoFJK:  IHMeth= 1 ICntrl=    3107 DoSepK=F KAlg= 0 I1Cent=           0 FoldK=F
 IRaf=         0 NMat=       1 IRICut=       1 DoRegI=T DoRafI=F ISym2E= 0 IDoP0=0 IntGTp=1.
 FoFCou: FMM=F IPFlag=           0 FMFlag=      100000 FMFlg1=           0
         NFxFlg=           0 DoJE=F BraDBF=F KetDBF=F FulRan=T
         wScrn=  0.000000 ICntrl=      3107 IOpCl=  0 I1Cent=           0 NGrid=           0
         NMat0=    1 NMatS0=      1 NMatT0=    0 NMatD0=    1 NMtDS0=    0 NMtDT0=    0
 Symmetry not used in FoFCou.
 End of G2Drv F.D. properties file   721 does not exist.
 End of G2Drv F.D. properties file   722 does not exist.
 End of G2Drv F.D. properties file   788 does not exist.
 Leave Link 1110 at Tue Feb 13 13:53:48 2024, MaxMem=  3221225472 cpu:             346.7 elap:              43.4
 (Enter /opt/g16/l1002.exe)
 Minotr:  Closed shell wavefunction.
          IDoAtm=1111111111111
          Direct CPHF calculation.
          Differentiating once with respect to electric field.
                with respect to dipole field.
          Differentiating once with respect to nuclear coordinates.
          Requested convergence is 1.0D-08 RMS, and 1.0D-07 maximum.
          Secondary convergence is 1.0D-12 RMS, and 1.0D-12 maximum.
          NewPWx=T KeepS1=F KeepF1=F KeepIn=T MapXYZ=F SortEE=F KeepMc=T.
         3868 words used for storage of precomputed grid.
 Keep R1 ints in memory in canonical form, NReq=349468589.
 FoFCou: FMM=F IPFlag=           0 FMFlag=           0 FMFlg1=           0
         NFxFlg=           0 DoJE=F BraDBF=F KetDBF=F FulRan=T
         wScrn=  0.000000 ICntrl=       600 IOpCl=  0 I1Cent=           0 NGrid=           0
         NMat0=    1 NMatS0=  26106 NMatT0=    0 NMatD0=    1 NMtDS0=    0 NMtDT0=    0
 Symmetry not used in FoFCou.
 Two-electron integral symmetry not used.
          MDV=    3221225472 using IRadAn=       1.
          Solving linear equations simultaneously, MaxMat=       0.
          There are    42 degrees of freedom in the 1st order CPHF.  IDoFFX=6 NUNeed=     3.
     39 vectors produced by pass  0 Test12= 1.17D-14 2.38D-09 XBig12= 2.33D+01 1.99D+00.
 AX will form    39 AO Fock derivatives at one time.
     39 vectors produced by pass  1 Test12= 1.17D-14 2.38D-09 XBig12= 3.26D+00 4.40D-01.
     39 vectors produced by pass  2 Test12= 1.17D-14 2.38D-09 XBig12= 6.42D-02 4.36D-02.
     39 vectors produced by pass  3 Test12= 1.17D-14 2.38D-09 XBig12= 6.28D-04 4.65D-03.
     39 vectors produced by pass  4 Test12= 1.17D-14 2.38D-09 XBig12= 4.21D-06 2.68D-04.
     39 vectors produced by pass  5 Test12= 1.17D-14 2.38D-09 XBig12= 1.99D-08 1.49D-05.
     22 vectors produced by pass  6 Test12= 1.17D-14 2.38D-09 XBig12= 7.61D-11 9.69D-07.
      4 vectors produced by pass  7 Test12= 1.17D-14 2.38D-09 XBig12= 2.77D-13 6.27D-08.
      3 vectors produced by pass  8 Test12= 1.17D-14 2.38D-09 XBig12= 9.35D-16 5.25D-09.
 InvSVY:  IOpt=1 It=  1 EMax= 2.66D-15
 Solved reduced A of dimension   263 with    42 vectors.
 FullF1:  Do perturbations      1 to       3.
 Isotropic polarizability for W=    0.000000       50.01 Bohr**3.
 End of Minotr F.D. properties file   721 does not exist.
 End of Minotr F.D. properties file   722 does not exist.
 End of Minotr F.D. properties file   788 does not exist.
 Leave Link 1002 at Tue Feb 13 13:54:42 2024, MaxMem=  3221225472 cpu:             431.0 elap:              53.9
 (Enter /opt/g16/l601.exe)
 Copying SCF densities to generalized density rwf, IOpCl= 0 IROHF=0.

 **********************************************************************

            Population analysis using the SCF density.

 **********************************************************************

 Orbital symmetries:
       Occupied  (A) (A) (A) (A) (A) (A) (A) (A) (A) (A) (A) (A)
                 (A) (A) (A) (A) (A) (A) (A) (A) (A) (A) (A) (A)
       Virtual   (A) (A) (A) (A) (A) (A) (A) (A) (A) (A) (A) (A)
                 (A) (A) (A) (A) (A) (A) (A) (A) (A) (A) (A) (A)
                 (A) (A) (A) (A) (A) (A) (A) (A) (A) (A) (A) (A)
                 (A) (A) (A) (A) (A) (A) (A) (A) (A) (A) (A) (A)
                 (A) (A) (A) (A) (A) (A) (A) (A) (A) (A) (A) (A)
                 (A) (A) (A) (A) (A) (A) (A) (A) (A) (A) (A) (A)
                 (A) (A) (A) (A) (A) (A) (A) (A) (A) (A) (A) (A)
                 (A) (A) (A) (A) (A) (A) (A) (A) (A) (A) (A) (A)
                 (A) (A) (A) (A) (A) (A) (A) (A) (A) (A) (A) (A)
                 (A) (A) (A) (A) (A) (A) (A) (A) (A) (A) (A) (A)
                 (A) (A) (A) (A) (A) (A) (A) (A) (A) (A) (A) (A)
                 (A) (A) (A) (A) (A) (A) (A) (A) (A) (A) (A) (A)
                 (A) (A) (A) (A) (A) (A) (A) (A) (A) (A) (A) (A)
                 (A) (A) (A) (A) (A) (A) (A) (A) (A) (A) (A) (A)
                 (A) (A) (A) (A) (A) (A) (A) (A) (A) (A) (A) (A)
                 (A) (A) (A) (A) (A) (A) (A) (A) (A) (A) (A) (A)
                 (A) (A) (A) (A) (A) (A) (A) (A) (A) (A) (A) (A)
 The electronic state is 1-A.
 Alpha  occ. eigenvalues --  -19.68087 -19.62611 -14.72953 -10.67975 -10.58577
 Alpha  occ. eigenvalues --  -10.54104  -1.24844  -1.15262  -1.00586  -0.85624
 Alpha  occ. eigenvalues --   -0.76897  -0.67749  -0.61431  -0.58928  -0.55619
 Alpha  occ. eigenvalues --   -0.52658  -0.51739  -0.49157  -0.47951  -0.45022
 Alpha  occ. eigenvalues --   -0.43469  -0.40764  -0.36409  -0.31519
 Alpha virt. eigenvalues --    0.04412   0.05830   0.07168   0.11064   0.11357
 Alpha virt. eigenvalues --    0.12967   0.14933   0.16522   0.17762   0.19359
 Alpha virt. eigenvalues --    0.21270   0.23708   0.25646   0.27383   0.28687
 Alpha virt. eigenvalues --    0.32154   0.32774   0.34684   0.35513   0.38540
 Alpha virt. eigenvalues --    0.38909   0.40907   0.42818   0.43667   0.45792
 Alpha virt. eigenvalues --    0.46897   0.48176   0.48459   0.50183   0.50528
 Alpha virt. eigenvalues --    0.52840   0.54280   0.55128   0.56424   0.59043
 Alpha virt. eigenvalues --    0.59287   0.60664   0.63020   0.65774   0.70840
 Alpha virt. eigenvalues --    0.72758   0.73435   0.75686   0.82342   0.84590
 Alpha virt. eigenvalues --    0.89373   0.91041   0.94025   0.95941   0.98701
 Alpha virt. eigenvalues --    1.02389   1.06192   1.08271   1.11937   1.14675
 Alpha virt. eigenvalues --    1.17048   1.18541   1.21943   1.30974   1.33960
 Alpha virt. eigenvalues --    1.37945   1.39151   1.41893   1.45731   1.48889
 Alpha virt. eigenvalues --    1.49824   1.51235   1.54523   1.56593   1.59543
 Alpha virt. eigenvalues --    1.60910   1.63912   1.65658   1.68171   1.70002
 Alpha virt. eigenvalues --    1.73920   1.74191   1.80524   1.83736   1.86948
 Alpha virt. eigenvalues --    1.88423   1.90833   1.97626   1.98197   2.00003
 Alpha virt. eigenvalues --    2.02954   2.04428   2.05016   2.08668   2.12701
 Alpha virt. eigenvalues --    2.15180   2.19100   2.20128   2.23005   2.24832
 Alpha virt. eigenvalues --    2.28167   2.31471   2.34114   2.34704   2.35735
 Alpha virt. eigenvalues --    2.37962   2.41909   2.45889   2.48779   2.51752
 Alpha virt. eigenvalues --    2.54907   2.58466   2.58998   2.62370   2.66165
 Alpha virt. eigenvalues --    2.68816   2.70898   2.75549   2.77234   2.81200
 Alpha virt. eigenvalues --    2.83901   2.85017   2.91612   2.93887   2.97822
 Alpha virt. eigenvalues --    3.00883   3.03765   3.06235   3.09024   3.11658
 Alpha virt. eigenvalues --    3.13122   3.16903   3.17607   3.21389   3.22564
 Alpha virt. eigenvalues --    3.26662   3.28694   3.32293   3.33964   3.35559
 Alpha virt. eigenvalues --    3.38584   3.39547   3.44864   3.47114   3.48358
 Alpha virt. eigenvalues --    3.56453   3.61186   3.64364   3.72505   3.75620
 Alpha virt. eigenvalues --    3.80013   3.83611   3.85855   3.89802   3.96092
 Alpha virt. eigenvalues --    3.99634   4.01817   4.07377   4.12894   4.24532
 Alpha virt. eigenvalues --    4.30402   4.32696   4.41048   4.43924   4.46885
 Alpha virt. eigenvalues --    4.54035   4.58782   4.66268   4.74507   4.76771
 Alpha virt. eigenvalues --    4.84186   4.87895   4.95170   5.08875   5.15132
 Alpha virt. eigenvalues --    5.17441   5.18341   5.21681   5.23901   5.29897
 Alpha virt. eigenvalues --    5.39338   5.40520   5.49023   5.51726   5.62619
 Alpha virt. eigenvalues --    5.77107   5.79815   5.87404   5.90973   6.18960
 Alpha virt. eigenvalues --    6.21981   6.32147   6.37819   6.45089   6.48161
 Alpha virt. eigenvalues --    6.65195   6.69629   6.76522   6.81536   6.88640
 Alpha virt. eigenvalues --    7.09667   7.10877   7.30632  22.43228  22.67947
 Alpha virt. eigenvalues --   23.36908  32.12838  43.95653  44.00508
          Condensed to atoms (all electrons):
               1          2          3          4          5          6
     1  O    7.923637  -0.086320   0.002960  -0.102926  -0.003832   0.376502
     2  O   -0.086320   7.837333  -0.012623  -0.065681  -0.011209   0.640751
     3  N    0.002960  -0.012623   6.676900   0.246509  -0.066998  -0.022790
     4  C   -0.102926  -0.065681   0.246509   5.167233   0.274830   0.240430
     5  C   -0.003832  -0.011209  -0.066998   0.274830   5.137679  -0.003502
     6  C    0.376502   0.640751  -0.022790   0.240430  -0.003502   4.530209
     7  H    0.004599   0.003759  -0.037550   0.439572  -0.075589  -0.052015
     8  H    0.004854   0.000308   0.010205  -0.038757   0.392655  -0.010548
     9  H   -0.000314  -0.000404  -0.002527  -0.053629   0.422929   0.009325
    10  H    0.000303   0.003892   0.005321  -0.024513   0.381888  -0.011185
    11  H   -0.000273  -0.000351   0.379884  -0.063451   0.001538   0.009006
    12  H    0.000947   0.017140   0.364075  -0.010835  -0.006289  -0.035127
    13  H    0.291056   0.006352  -0.000529   0.016257  -0.000026  -0.025578
               7          8          9         10         11         12
     1  O    0.004599   0.004854  -0.000314   0.000303  -0.000273   0.000947
     2  O    0.003759   0.000308  -0.000404   0.003892  -0.000351   0.017140
     3  N   -0.037550   0.010205  -0.002527   0.005321   0.379884   0.364075
     4  C    0.439572  -0.038757  -0.053629  -0.024513  -0.063451  -0.010835
     5  C   -0.075589   0.392655   0.422929   0.381888   0.001538  -0.006289
     6  C   -0.052015  -0.010548   0.009325  -0.011185   0.009006  -0.035127
     7  H    0.562667   0.002810  -0.006850   0.009833  -0.002538   0.008161
     8  H    0.002810   0.521999  -0.018347  -0.017571   0.000658   0.000086
     9  H   -0.006850  -0.018347   0.528102  -0.027071   0.002766  -0.000516
    10  H    0.009833  -0.017571  -0.027071   0.528473  -0.000567   0.004436
    11  H   -0.002538   0.000658   0.002766  -0.000567   0.482001  -0.032921
    12  H    0.008161   0.000086  -0.000516   0.004436  -0.032921   0.439934
    13  H   -0.001252  -0.000302   0.000090  -0.000218   0.000056  -0.000215
              13
     1  O    0.291056
     2  O    0.006352
     3  N   -0.000529
     4  C    0.016257
     5  C   -0.000026
     6  C   -0.025578
     7  H   -0.001252
     8  H   -0.000302
     9  H    0.000090
    10  H   -0.000218
    11  H    0.000056
    12  H   -0.000215
    13  H    0.377824
 Mulliken charges:
               1
     1  O   -0.411193
     2  O   -0.332947
     3  N   -0.542838
     4  C   -0.025039
     5  C   -0.444074
     6  C    0.354521
     7  H    0.144393
     8  H    0.151949
     9  H    0.146446
    10  H    0.146979
    11  H    0.224193
    12  H    0.251124
    13  H    0.336485
 Sum of Mulliken charges =  -0.00000
 Mulliken charges with hydrogens summed into heavy atoms:
               1
     1  O   -0.074707
     2  O   -0.332947
     3  N   -0.067521
     4  C    0.119354
     5  C    0.001301
     6  C    0.354521
 APT charges:
               1
     1  O   -0.718652
     2  O   -0.753193
     3  N   -0.511799
     4  C    0.239541
     5  C   -0.008587
     6  C    1.121521
     7  H   -0.019254
     8  H    0.003688
     9  H   -0.008428
    10  H    0.002862
    11  H    0.162985
    12  H    0.187345
    13  H    0.301970
 Sum of APT charges =   0.00000
 APT charges with hydrogens summed into heavy atoms:
               1
     1  O   -0.416682
     2  O   -0.753193
     3  N   -0.161469
     4  C    0.220287
     5  C   -0.010464
     6  C    1.121521
 Electronic spatial extent (au):  <R**2>=            571.5598
 Charge=              0.0000 electrons
 Dipole moment (field-independent basis, Debye):
    X=             -0.5831    Y=              2.0609    Z=              0.4022  Tot=              2.1793
 Quadrupole moment (field-independent basis, Debye-Ang):
   XX=            -28.9749   YY=            -40.4002   ZZ=            -38.5266
   XY=              1.2520   XZ=             -1.5507   YZ=             -0.2622
 Traceless Quadrupole moment (field-independent basis, Debye-Ang):
   XX=              6.9924   YY=             -4.4330   ZZ=             -2.5594
   XY=              1.2520   XZ=             -1.5507   YZ=             -0.2622
 Octapole moment (field-independent basis, Debye-Ang**2):
  XXX=             17.0293  YYY=              0.7648  ZZZ=              0.8848  XYY=             -0.9927
  XXY=              2.7804  XXZ=              0.0419  XZZ=              2.1887  YZZ=              1.9487
  YYZ=              3.0758  XYZ=              6.7213
 Hexadecapole moment (field-independent basis, Debye-Ang**3):
 XXXX=           -284.4843 YYYY=           -239.0294 ZZZZ=            -99.3590 XXXY=             21.0514
 XXXZ=              2.1676 YYYX=              6.4628 YYYZ=             -9.2996 ZZZX=             -1.8998
 ZZZY=             -6.8145 XXYY=           -107.0270 XXZZ=            -86.4256 YYZZ=            -61.7152
 XXYZ=             -1.2244 YYXZ=             -6.1342 ZZXY=             -1.0215
 N-N= 2.509697555527D+02 E-N=-1.260067031691D+03  KE= 3.223226784233D+02
  Exact polarizability:  55.009   0.282  52.222   0.420  -2.639  42.789
 Approx polarizability:  59.345   0.240  61.849   1.124  -6.602  53.545
 No NMR shielding tensors so no spin-rotation constants.
 Leave Link  601 at Tue Feb 13 13:54:42 2024, MaxMem=  3221225472 cpu:               2.0 elap:               0.3
 (Enter /opt/g16/l701.exe)
 ... and contract with generalized density number  0.
 Compute integral second derivatives.
   1 Symmetry operations used in ECPInt.
 ECPInt:  NShTT=    4465 NPrTT=   13356 LenC2=    4423 LenP2D=   10978.
 LDataN:  DoStor=T MaxTD1= 8 Len=  415
 Leave Link  701 at Tue Feb 13 13:54:43 2024, MaxMem=  3221225472 cpu:               2.5 elap:               0.3
 (Enter /opt/g16/l702.exe)
 L702 exits ... SP integral derivatives will be done elsewhere.
 Leave Link  702 at Tue Feb 13 13:54:43 2024, MaxMem=  3221225472 cpu:               0.3 elap:               0.0
 (Enter /opt/g16/l703.exe)
 Integral derivatives from FoFJK, PRISM(SPDF).
 Compute integral second derivatives, UseDBF=F ICtDFT=           0.
 Calling FoFJK, ICntrl=    100127 FMM=F ISym2X=0 I1Cent= 0 IOpClX= 0 NMat=1 NMatS=1 NMatT=0.
 FoFJK:  IHMeth= 1 ICntrl=  100127 DoSepK=F KAlg= 0 I1Cent=           0 FoldK=F
 IRaf=         0 NMat=       1 IRICut=       1 DoRegI=T DoRafI=F ISym2E= 0 IDoP0=0 IntGTp=1.
 FoFCou: FMM=F IPFlag=           0 FMFlag=      100000 FMFlg1=         800
         NFxFlg=           0 DoJE=F BraDBF=F KetDBF=F FulRan=T
         wScrn=  0.000000 ICntrl=    100127 IOpCl=  0 I1Cent=           0 NGrid=           0
         NMat0=    1 NMatS0=      1 NMatT0=    0 NMatD0=    1 NMtDS0=    0 NMtDT0=    0
 Symmetry not used in FoFCou.
 Leave Link  703 at Tue Feb 13 13:56:20 2024, MaxMem=  3221225472 cpu:             774.1 elap:              96.8
 (Enter /opt/g16/l716.exe)
 Dipole        =-2.29428179D-01 8.10819981D-01 1.58252061D-01
 Polarizability= 5.50088155D+01 2.82275417D-01 5.22216384D+01
                 4.19669734D-01-2.63940735D+00 4.27887251D+01
 Full mass-weighted force constant matrix:
 Low frequencies ---   -7.0313   -0.0003    0.0008    0.0010    4.7280   10.6069
 Low frequencies ---   65.3262  227.4834  242.3799
 Diagonal vibrational polarizability:
       29.4255194      16.4150492      20.7029361
 Harmonic frequencies (cm**-1), IR intensities (KM/Mole), Raman scattering
 activities (A**4/AMU), depolarization ratios for plane and unpolarized
 incident light, reduced masses (AMU), force constants (mDyne/A),
 and normal coordinates:
                      1                      2                      3
                      A                      A                      A
 Frequencies --     65.3215               227.4776               242.3789
 Red. masses --      5.1158                 1.1567                 1.9259
 Frc consts  --      0.0129                 0.0353                 0.0667
 IR Inten    --      1.5342                43.1095                 6.9734
  Atom  AN      X      Y      Z        X      Y      Z        X      Y      Z
     1   8    -0.06   0.15   0.25     0.04  -0.04  -0.01    -0.06   0.05   0.04
     2   8     0.07  -0.18  -0.24    -0.02  -0.00  -0.00    -0.05   0.06   0.07
     3   7    -0.05  -0.03   0.20     0.01   0.03  -0.00    -0.07  -0.01  -0.05
     4   6    -0.00  -0.06  -0.01     0.01   0.03   0.00    -0.01  -0.05  -0.09
     5   6     0.04   0.13  -0.21    -0.07   0.00  -0.01     0.19  -0.05   0.01
     6   6     0.00  -0.04  -0.01     0.01   0.02   0.01    -0.03  -0.01  -0.04
     7   1     0.01  -0.22  -0.09     0.04   0.06   0.01    -0.04  -0.02  -0.08
     8   1     0.06   0.11  -0.41    -0.11   0.03   0.03     0.07   0.01  -0.28
     9   1     0.04   0.10  -0.24    -0.07  -0.03  -0.08     0.06  -0.19   0.38
    10   1     0.05   0.34  -0.14    -0.13  -0.01  -0.02     0.62   0.02   0.04
    11   1    -0.03   0.01   0.40     0.05  -0.02   0.69    -0.03   0.02   0.31
    12   1     0.10  -0.03   0.14     0.49  -0.26  -0.38     0.17  -0.16  -0.24
    13   1    -0.05   0.13   0.21     0.04  -0.09  -0.03    -0.08   0.15   0.17
                      4                      5                      6
                      A                      A                      A
 Frequencies --    253.7111               321.2685               379.6734
 Red. masses --      1.3097                 3.5019                 2.8381
 Frc consts  --      0.0497                 0.2130                 0.2410
 IR Inten    --      1.2429                 0.3920                 2.2921
  Atom  AN      X      Y      Z        X      Y      Z        X      Y      Z
     1   8    -0.06   0.04  -0.01    -0.09  -0.01  -0.04    -0.15  -0.02  -0.04
     2   8     0.05   0.02   0.04     0.26  -0.05   0.06    -0.02  -0.06   0.00
     3   7    -0.07   0.00  -0.02    -0.17   0.11  -0.13     0.18  -0.09  -0.11
     4   6     0.00  -0.04  -0.02     0.04  -0.03   0.10    -0.03   0.03   0.11
     5   6     0.07  -0.02  -0.01    -0.07   0.03  -0.03     0.07   0.19   0.03
     6   6    -0.00  -0.02   0.01     0.05  -0.08   0.12    -0.07  -0.02   0.08
     7   1     0.04  -0.03  -0.01     0.22   0.02   0.12     0.04   0.07   0.13
     8   1     0.42  -0.24   0.36    -0.31   0.18  -0.32     0.24   0.06  -0.18
     9   1     0.26   0.41  -0.30    -0.17  -0.29   0.01     0.11   0.34   0.01
    10   1    -0.40  -0.22  -0.08     0.12   0.28   0.06     0.05   0.40   0.11
    11   1    -0.05   0.06   0.16    -0.13   0.29  -0.01     0.12  -0.38  -0.17
    12   1     0.01  -0.08  -0.11    -0.26  -0.14  -0.29     0.28  -0.24  -0.26
    13   1    -0.05   0.12   0.01    -0.01   0.09  -0.18    -0.08   0.01  -0.22
                      7                      8                      9
                      A                      A                      A
 Frequencies --    511.1149               594.4126               646.2945
 Red. masses --      3.5745                 1.2051                 3.5202
 Frc consts  --      0.5502                 0.2509                 0.8663
 IR Inten    --     23.9714                83.1943                24.9663
  Atom  AN      X      Y      Z        X      Y      Z        X      Y      Z
     1   8     0.21  -0.03   0.07     0.00  -0.05  -0.04    -0.09  -0.15   0.12
     2   8     0.09   0.12  -0.05     0.03  -0.00   0.00     0.21   0.07   0.01
     3   7    -0.15  -0.17  -0.08     0.02   0.01   0.00     0.07   0.05   0.03
     4   6    -0.17  -0.07   0.08    -0.02   0.02   0.01    -0.12   0.12  -0.19
     5   6    -0.02   0.09   0.04    -0.03   0.04   0.03    -0.02   0.03   0.00
     6   6    -0.00   0.09  -0.04     0.00  -0.05  -0.06    -0.12  -0.06  -0.05
     7   1    -0.29  -0.04   0.08    -0.06   0.05   0.02    -0.09   0.07  -0.20
     8   1     0.21  -0.07  -0.19    -0.04   0.05   0.02     0.00   0.03   0.19
     9   1     0.04   0.32   0.07    -0.02   0.03  -0.02    -0.07   0.11   0.25
    10   1     0.01   0.31   0.12    -0.06   0.07   0.04     0.13  -0.27  -0.11
    11   1    -0.17  -0.21  -0.08     0.00  -0.06  -0.02     0.02  -0.21   0.00
    12   1    -0.16  -0.29  -0.17     0.05  -0.00  -0.01     0.26   0.28   0.13
    13   1     0.08  -0.40   0.14    -0.17   0.49   0.83    -0.14  -0.56  -0.05
                     10                     11                     12
                      A                      A                      A
 Frequencies --    775.7054               812.5569               854.3481
 Red. masses --      4.3088                 2.4066                 1.3579
 Frc consts  --      1.5276                 0.9362                 0.5840
 IR Inten    --     32.4650                52.5765               147.1337
  Atom  AN      X      Y      Z        X      Y      Z        X      Y      Z
     1   8    -0.00  -0.12  -0.08    -0.06  -0.06   0.06    -0.03  -0.03   0.02
     2   8     0.03   0.01  -0.15    -0.01   0.12  -0.04    -0.00   0.03  -0.02
     3   7     0.00   0.02   0.01     0.05   0.11   0.05     0.02  -0.09  -0.09
     4   6    -0.00  -0.00   0.02     0.07  -0.06   0.14     0.05  -0.01   0.03
     5   6     0.06  -0.12  -0.10     0.07  -0.10  -0.02     0.00  -0.00   0.03
     6   6    -0.15   0.27   0.34    -0.08   0.00  -0.13    -0.03   0.01  -0.02
     7   1     0.34  -0.14  -0.02    -0.04   0.08   0.19     0.03   0.09   0.07
     8   1     0.19  -0.22  -0.09    -0.05  -0.03  -0.21    -0.01   0.00  -0.08
     9   1     0.04   0.04   0.16     0.12  -0.30  -0.44     0.03  -0.01  -0.11
    10   1     0.24  -0.25  -0.15    -0.19   0.20   0.08    -0.07   0.20   0.11
    11   1     0.01   0.07  -0.04     0.03   0.04  -0.25     0.14   0.45   0.51
    12   1    -0.04  -0.01  -0.00    -0.04  -0.31  -0.25    -0.11   0.47   0.40
    13   1    -0.19   0.02   0.53    -0.17  -0.38   0.12    -0.07  -0.10   0.06
                     13                     14                     15
                      A                      A                      A
 Frequencies --    934.4988              1045.2235              1105.4112
 Red. masses --      1.7984                 1.4866                 2.7376
 Frc consts  --      0.9253                 0.9569                 1.9709
 IR Inten    --      3.1391                 5.2646                11.8219
  Atom  AN      X      Y      Z        X      Y      Z        X      Y      Z
     1   8    -0.03  -0.03   0.01    -0.02  -0.01   0.01    -0.00   0.01   0.01
     2   8    -0.01   0.04  -0.03    -0.02   0.03  -0.00    -0.01   0.02   0.01
     3   7    -0.04  -0.09   0.01     0.06   0.05   0.01    -0.02  -0.07  -0.05
     4   6     0.14  -0.06  -0.04     0.05  -0.09   0.03    -0.04   0.17   0.26
     5   6     0.04   0.16   0.05    -0.13   0.03  -0.01     0.05  -0.00  -0.20
     6   6    -0.03   0.04  -0.00     0.01  -0.02  -0.06     0.01  -0.05  -0.08
     7   1     0.24  -0.27  -0.12     0.16  -0.30  -0.05     0.05  -0.04   0.18
     8   1    -0.32   0.42   0.51     0.23  -0.22  -0.03     0.01   0.04   0.29
     9   1    -0.06  -0.23   0.02    -0.14   0.44   0.46    -0.08  -0.14   0.21
    10   1    -0.07  -0.23  -0.08     0.26  -0.08  -0.05     0.26  -0.61  -0.41
    11   1    -0.02   0.03  -0.06     0.13   0.39   0.02    -0.02  -0.07   0.15
    12   1    -0.12  -0.26  -0.10    -0.15  -0.19  -0.10    -0.09   0.03   0.08
    13   1    -0.08  -0.13   0.06    -0.03  -0.06   0.02    -0.00   0.02   0.02
                     16                     17                     18
                      A                      A                      A
 Frequencies --   1172.8848              1185.4873              1252.7760
 Red. masses --      1.6375                 1.8918                 1.9048
 Frc consts  --      1.3272                 1.5664                 1.7614
 IR Inten    --    179.7791                86.1475                27.1006
  Atom  AN      X      Y      Z        X      Y      Z        X      Y      Z
     1   8     0.07   0.12  -0.06    -0.05  -0.07   0.04     0.00   0.07  -0.05
     2   8     0.01  -0.03   0.03    -0.02   0.06  -0.03     0.02  -0.05   0.04
     3   7    -0.01   0.03  -0.01    -0.10  -0.07   0.04    -0.00  -0.10   0.06
     4   6    -0.01  -0.05   0.02     0.13   0.10  -0.02     0.09   0.17  -0.06
     5   6    -0.01   0.01   0.02    -0.06  -0.04   0.02    -0.03  -0.03   0.00
     6   6    -0.11  -0.08  -0.02     0.07   0.02  -0.05    -0.05  -0.03   0.02
     7   1     0.67  -0.03   0.05     0.63   0.26   0.06    -0.22   0.32  -0.02
     8   1     0.02  -0.02  -0.01     0.13  -0.18  -0.18     0.06  -0.10  -0.14
     9   1    -0.01  -0.01   0.02     0.00   0.22   0.06     0.03   0.11  -0.05
    10   1     0.01   0.02   0.02     0.09   0.16   0.09     0.08   0.04   0.02
    11   1    -0.07  -0.27   0.02    -0.17  -0.41  -0.11     0.07   0.31  -0.05
    12   1     0.20   0.27   0.10     0.12   0.04   0.04    -0.31  -0.47  -0.12
    13   1    -0.20  -0.45   0.24     0.08   0.20  -0.12    -0.23  -0.42   0.24
                     19                     20                     21
                      A                      A                      A
 Frequencies --   1326.8488              1359.7363              1398.4282
 Red. masses --      1.6309                 1.3141                 1.2474
 Frc consts  --      1.6917                 1.4315                 1.4372
 IR Inten    --     13.4581                18.7449                 4.3254
  Atom  AN      X      Y      Z        X      Y      Z        X      Y      Z
     1   8    -0.06   0.01  -0.02     0.04  -0.00   0.01     0.00   0.00   0.00
     2   8    -0.02  -0.03   0.01     0.01   0.02  -0.01    -0.00   0.00   0.00
     3   7    -0.04   0.03  -0.02     0.01  -0.01   0.03     0.01  -0.01   0.01
     4   6     0.08  -0.09   0.01    -0.01  -0.10  -0.03    -0.04   0.01  -0.00
     5   6    -0.02   0.02  -0.05    -0.01   0.05  -0.04     0.06  -0.10  -0.08
     6   6     0.14   0.08   0.01    -0.09  -0.03   0.01     0.00  -0.01  -0.00
     7   1    -0.43   0.35   0.18     0.08   0.81   0.34     0.12   0.07   0.03
     8   1     0.03   0.00   0.17     0.06   0.01   0.08    -0.38   0.24   0.38
     9   1    -0.07   0.08   0.18    -0.07  -0.07   0.10     0.03   0.35   0.40
    10   1     0.08  -0.01  -0.06     0.04  -0.15  -0.11    -0.23   0.49   0.14
    11   1    -0.09  -0.27  -0.03     0.05   0.16  -0.04     0.03   0.09  -0.02
    12   1     0.19   0.23   0.05    -0.02  -0.07  -0.01    -0.03  -0.06  -0.02
    13   1    -0.27  -0.46   0.24     0.15   0.23  -0.14     0.00  -0.00   0.00
                     22                     23                     24
                      A                      A                      A
 Frequencies --   1450.2315              1495.2684              1507.6960
 Red. masses --      1.7669                 1.0495                 1.1880
 Frc consts  --      2.1895                 1.3825                 1.5911
 IR Inten    --     32.0974                 8.0595                21.1089
  Atom  AN      X      Y      Z        X      Y      Z        X      Y      Z
     1   8    -0.05  -0.01   0.00    -0.00  -0.00   0.00    -0.02  -0.01   0.00
     2   8    -0.02  -0.02   0.01    -0.00  -0.00   0.00    -0.01  -0.01   0.01
     3   7     0.03  -0.02   0.02     0.01   0.00  -0.00     0.02  -0.01   0.01
     4   6    -0.16  -0.01  -0.02    -0.02  -0.03   0.01    -0.09   0.01  -0.02
     5   6     0.06   0.02   0.04    -0.02  -0.03   0.03    -0.03   0.01  -0.02
     6   6     0.16   0.06  -0.03     0.01   0.01  -0.00     0.06   0.03  -0.01
     7   1     0.51   0.18   0.06     0.04   0.06   0.05     0.24   0.04  -0.01
     8   1    -0.12   0.11  -0.41    -0.38   0.23   0.02     0.28  -0.17   0.52
     9   1     0.02  -0.02   0.05     0.24   0.46  -0.47    -0.04  -0.36  -0.28
    10   1    -0.35  -0.33  -0.10     0.52  -0.16  -0.04     0.39   0.36   0.12
    11   1     0.08   0.28  -0.02     0.01   0.01   0.00     0.04   0.13   0.00
    12   1    -0.09  -0.14  -0.03    -0.00   0.01   0.00    -0.07  -0.09  -0.02
    13   1    -0.13  -0.21   0.11     0.00   0.00  -0.00    -0.04  -0.06   0.04
                     25                     26                     27
                      A                      A                      A
 Frequencies --   1641.3034              1872.7576              3061.9024
 Red. masses --      1.1009                 9.5378                 1.0346
 Frc consts  --      1.7473                19.7089                 5.7149
 IR Inten    --     63.5937               306.8441                12.1748
  Atom  AN      X      Y      Z        X      Y      Z        X      Y      Z
     1   8     0.00   0.00  -0.00     0.01  -0.05   0.03     0.00   0.00   0.00
     2   8     0.01  -0.01   0.01     0.13  -0.35   0.25     0.00  -0.00   0.00
     3   7    -0.05  -0.05   0.02     0.00   0.01  -0.01    -0.00  -0.00  -0.00
     4   6     0.00   0.01   0.03     0.05  -0.03   0.03     0.00  -0.00   0.01
     5   6    -0.00  -0.00  -0.00     0.00  -0.01  -0.00     0.02  -0.03  -0.04
     6   6    -0.01   0.01  -0.01    -0.25   0.53  -0.39    -0.00   0.00  -0.00
     7   1    -0.04  -0.08  -0.01     0.16  -0.04   0.00     0.00   0.03  -0.09
     8   1     0.01  -0.00   0.01     0.00  -0.01  -0.01     0.30   0.42  -0.03
     9   1     0.00  -0.01  -0.02    -0.00   0.02   0.07    -0.53   0.13  -0.15
    10   1     0.02  -0.00  -0.00    -0.05   0.03   0.00     0.01  -0.23   0.59
    11   1     0.05   0.51  -0.44    -0.04  -0.19   0.10    -0.00  -0.00   0.00
    12   1     0.70   0.17  -0.09    -0.19  -0.02   0.04     0.00  -0.00   0.00
    13   1     0.01   0.01  -0.00     0.18   0.33  -0.18     0.00   0.00  -0.00
                     28                     29                     30
                      A                      A                      A
 Frequencies --   3083.4544              3140.9447              3148.9182
 Red. masses --      1.0843                 1.1034                 1.1030
 Frc consts  --      6.0738                 6.4137                 6.4437
 IR Inten    --     11.5006                15.1853                14.5146
  Atom  AN      X      Y      Z        X      Y      Z        X      Y      Z
     1   8    -0.00  -0.00   0.00     0.00  -0.00   0.00     0.00   0.00   0.00
     2   8     0.00  -0.00   0.00     0.00  -0.00   0.00    -0.00   0.00  -0.00
     3   7     0.00  -0.00   0.00     0.00  -0.00   0.00     0.00   0.00  -0.00
     4   6     0.00   0.03  -0.08    -0.00   0.00  -0.01    -0.00  -0.00   0.01
     5   6     0.01  -0.01   0.01    -0.06   0.03  -0.06    -0.06  -0.06   0.03
     6   6     0.00   0.00  -0.00     0.00  -0.00  -0.00    -0.00  -0.00   0.00
     7   1    -0.02  -0.37   0.91    -0.00  -0.05   0.14     0.00   0.03  -0.07
     8   1     0.07   0.09  -0.01     0.01   0.04  -0.01     0.48   0.70  -0.04
     9   1    -0.13   0.03  -0.03     0.70  -0.17   0.18     0.30  -0.09   0.09
    10   1    -0.00   0.02  -0.06    -0.01  -0.23   0.60    -0.02   0.14  -0.38
    11   1     0.00   0.00  -0.00     0.00   0.00  -0.00    -0.00   0.00   0.00
    12   1    -0.01   0.00  -0.02    -0.00  -0.00  -0.00     0.00  -0.00   0.00
    13   1     0.00  -0.00   0.00    -0.00  -0.00  -0.00    -0.00   0.00  -0.00
                     31                     32                     33
                      A                      A                      A
 Frequencies --   3530.0419              3619.9145              3804.9359
 Red. masses --      1.0494                 1.0935                 1.0643
 Frc consts  --      7.7048                 8.4427                 9.0785
 IR Inten    --      8.0021                14.3340                92.1755
  Atom  AN      X      Y      Z        X      Y      Z        X      Y      Z
     1   8     0.00  -0.00   0.00     0.00   0.00  -0.00    -0.06   0.01  -0.02
     2   8     0.00  -0.00   0.00    -0.00  -0.00  -0.00     0.00   0.00  -0.00
     3   7    -0.03  -0.03   0.04    -0.07   0.04  -0.03    -0.00   0.00   0.00
     4   6    -0.00   0.00   0.00    -0.00   0.00  -0.00     0.00  -0.00   0.00
     5   6     0.00   0.00  -0.00     0.00  -0.00   0.00     0.00   0.00   0.00
     6   6     0.00   0.00  -0.00     0.00   0.00   0.00    -0.00  -0.00  -0.00
     7   1     0.00   0.00  -0.01    -0.00  -0.00   0.01     0.00   0.00  -0.00
     8   1     0.00   0.00   0.00     0.00   0.00   0.00     0.00   0.00   0.00
     9   1     0.00  -0.00  -0.00    -0.00  -0.00  -0.00     0.00   0.00  -0.00
    10   1     0.00  -0.00  -0.00    -0.00   0.00  -0.00    -0.00   0.00  -0.00
    11   1     0.60  -0.12  -0.01     0.77  -0.15  -0.05     0.00  -0.00   0.00
    12   1    -0.23   0.47  -0.59     0.15  -0.35   0.47    -0.00  -0.00  -0.00
    13   1    -0.00   0.00  -0.00    -0.00   0.00  -0.00     0.91  -0.24   0.34

 -------------------
 - Thermochemistry -
 -------------------
 Temperature   298.150 Kelvin.  Pressure   1.00000 Atm.
 Atom     1 has atomic number  8 and mass  15.99491
 Atom     2 has atomic number  8 and mass  15.99491
 Atom     3 has atomic number  7 and mass  14.00307
 Atom     4 has atomic number  6 and mass  12.00000
 Atom     5 has atomic number  6 and mass  12.00000
 Atom     6 has atomic number  6 and mass  12.00000
 Atom     7 has atomic number  1 and mass   1.00783
 Atom     8 has atomic number  1 and mass   1.00783
 Atom     9 has atomic number  1 and mass   1.00783
 Atom    10 has atomic number  1 and mass   1.00783
 Atom    11 has atomic number  1 and mass   1.00783
 Atom    12 has atomic number  1 and mass   1.00783
 Atom    13 has atomic number  1 and mass   1.00783
 Molecular mass:    89.04768 amu.
 Principal axes and moments of inertia in atomic units:
                           1         2         3
     Eigenvalues --   353.07228 578.76974 767.73458
           X            0.99982  -0.01167  -0.01485
           Y            0.01214   0.99943   0.03146
           Z            0.01447  -0.03163   0.99939
 This molecule is an asymmetric top.
 Rotational symmetry number  1.
 Rotational temperatures (Kelvin)      0.24531     0.14965     0.11282
 Rotational constants (GHZ):           5.11153     3.11824     2.35074
 Zero-point vibrational energy     286044.6 (Joules/Mol)
                                   68.36631 (Kcal/Mol)
 Warning -- explicit consideration of   8 degrees of freedom as
           vibrations may cause significant error
 Vibrational temperatures:     93.98   327.29   348.73   365.03   462.23
          (Kelvin)            546.27   735.38   855.23   929.87  1116.07
                             1169.09  1229.22  1344.54  1503.84  1590.44
                             1687.52  1705.65  1802.47  1909.04  1956.36
                             2012.03  2086.56  2151.36  2169.24  2361.47
                             2694.48  4405.39  4436.40  4519.12  4530.59
                             5078.94  5208.25  5474.45
 
 Zero-point correction=                           0.108949 (Hartree/Particle)
 Thermal correction to Energy=                    0.115744
 Thermal correction to Enthalpy=                  0.116688
 Thermal correction to Gibbs Free Energy=         0.078439
 Sum of electronic and zero-point Energies=           -323.636756
 Sum of electronic and thermal Energies=              -323.629960
 Sum of electronic and thermal Enthalpies=            -323.629016
 Sum of electronic and thermal Free Energies=         -323.667265
 
                     E (Thermal)             CV                S
                      KCal/Mol        Cal/Mol-Kelvin    Cal/Mol-Kelvin
 Total                   72.631             23.839             80.502
 Electronic               0.000              0.000              0.000
 Translational            0.889              2.981             39.372
 Rotational               0.889              2.981             26.553
 Vibrational             70.853             17.877             14.576
 Vibration     1          0.597              1.971              4.290
 Vibration     2          0.651              1.799              1.899
 Vibration     3          0.659              1.775              1.785
 Vibration     4          0.665              1.757              1.705
 Vibration     5          0.707              1.633              1.304
 Vibration     6          0.750              1.513              1.040
 Vibration     7          0.866              1.225              0.631
 Vibration     8          0.952              1.044              0.459
                       Q            Log10(Q)             Ln(Q)
 Total Bot       0.832593D-36        -36.079567        -83.076273
 Total V=0       0.107966D+15         14.033286         32.312836
 Vib (Bot)       0.177791D-48        -48.750091       -112.251232
 Vib (Bot)    1  0.315928D+01          0.499589          1.150345
 Vib (Bot)    2  0.866786D+00         -0.062088         -0.142963
 Vib (Bot)    3  0.808103D+00         -0.092533         -0.213066
 Vib (Bot)    4  0.767906D+00         -0.114692         -0.264088
 Vib (Bot)    5  0.584681D+00         -0.233081         -0.536689
 Vib (Bot)    6  0.476322D+00         -0.322100         -0.741662
 Vib (Bot)    7  0.318372D+00         -0.497065         -1.144535
 Vib (Bot)    8  0.252648D+00         -0.597485         -1.375760
 Vib (V=0)       0.230549D+02          1.362763          3.137877
 Vib (V=0)    1  0.369860D+01          0.568038          1.307956
 Vib (V=0)    2  0.150066D+01          0.176282          0.405904
 Vib (V=0)    3  0.145028D+01          0.161452          0.371756
 Vib (V=0)    4  0.141634D+01          0.151168          0.348076
 Vib (V=0)    5  0.126932D+01          0.103571          0.238480
 Vib (V=0)    6  0.119057D+01          0.075754          0.174429
 Vib (V=0)    7  0.109276D+01          0.038524          0.088704
 Vib (V=0)    8  0.106021D+01          0.025390          0.058463
 Electronic      0.100000D+01          0.000000          0.000000
 Translational   0.330284D+08          7.518888         17.312879
 Rotational      0.141787D+06          5.151636         11.862080
 
                                                      opt alanine M062X def2TZVP
                                                             IR Spectrum
 
     3      3  3           3333                                       1       1   111 111  111  1 1                                  
     8      6  5           1100                                       8       6   544 333  211  1 0  9  88 7   6 5 5    3 3222       
     0      2  3           4486                                       7       4   095 962  587  0 4  3  51 7   4 9 1    8 2542    6  
     5      0  0           9132                                       3       1   850 807  353  5 5  4  43 6   6 4 1    0 1427    5  
 
     X      X  X           XXXX                                       X       X   XXX XXX  XXX  X X  X  XX X   X X X    X XXXX    X  
     X                                                                X       X     X      XXX          XX X   X X X         X       
     X                                                                X       X             XX          XX       X           X       
     X                                                                X       X             XX          X        X                   
     X                                                                X                     XX          X        X                   
     X                                                                X                     XX          X                            
                                                                      X                      X          X                            
                                                                      X                      X          X                            
                                                                      X                      X          X                            
                                                                      X                      X          X                            
                                                                      X                      X                                       
                                                                      X                      X                                       
                                                                      X                                                              
                                                                      X                                                              
                                                                      X                                                              
                                                                      X                                                              
                                                                      X                                                              
                                                                      X                                                              
                                                                      X                                                              
                                                                      X                                                              
 
 ***** Axes restored to original set *****
 -------------------------------------------------------------------
 Center     Atomic                   Forces (Hartrees/Bohr)
 Number     Number              X              Y              Z
 -------------------------------------------------------------------
      1        8          -0.000006854    0.000006277   -0.000000994
      2        8           0.000002838    0.000035329   -0.000021094
      3        7          -0.000019974   -0.000010963   -0.000030490
      4        6           0.000028099    0.000043609    0.000036234
      5        6           0.000000129   -0.000015238   -0.000018741
      6        6           0.000007654   -0.000066592    0.000023117
      7        1           0.000001758   -0.000011918   -0.000002837
      8        1          -0.000002753   -0.000003044   -0.000001167
      9        1          -0.000001016   -0.000000571    0.000002436
     10        1           0.000004685    0.000001056   -0.000000525
     11        1          -0.000003048    0.000011972    0.000006742
     12        1          -0.000005640    0.000010987    0.000004594
     13        1          -0.000005879   -0.000000902    0.000002723
 -------------------------------------------------------------------
 Cartesian Forces:  Max     0.000066592 RMS     0.000018584
 Force constants in Cartesian coordinates: 
                1             2             3             4             5 
      1  0.629442D+00
      2 -0.498884D-01  0.290273D+00
      3 -0.116695D+00 -0.172429D+00  0.198341D+00
      4  0.357122D-01  0.256136D-01 -0.199266D-01  0.191080D+00
      5  0.185717D-01 -0.667264D-01  0.661844D-01  0.174665D+00  0.500115D+00
      6 -0.158832D-01  0.652666D-01 -0.140335D-01 -0.167140D+00 -0.383763D+00
      7 -0.942956D-02  0.951646D-03  0.129763D-02 -0.152209D-02  0.462080D-02
      8 -0.200409D-02  0.153183D-02 -0.965871D-03 -0.236059D-02  0.169863D-02
      9  0.231667D-02 -0.794732D-03  0.121069D-02  0.142933D-02 -0.587686D-03
     10 -0.282350D-01  0.619456D-02  0.357763D-02 -0.898318D-02 -0.105559D-01
     11  0.303706D-01  0.334963D-02 -0.603203D-03 -0.274128D-01 -0.838876D-02
     12 -0.121241D-01  0.563654D-02  0.952363D-02  0.304872D-01  0.224095D-01
     13 -0.187440D-02  0.171433D-02  0.125328D-02 -0.168310D-02  0.191604D-02
     14  0.225139D-02 -0.272483D-02 -0.207463D-03  0.201235D-02  0.254388D-02
     15  0.126827D-02 -0.115961D-02  0.282240D-03  0.308185D-02  0.143379D-02
     16 -0.202873D+00  0.706024D-01 -0.170718D-01 -0.211374D+00 -0.174800D+00
     17  0.870447D-01 -0.177955D+00  0.591522D-01 -0.160624D+00 -0.430228D+00
     18 -0.300527D-01  0.636259D-01 -0.105469D+00  0.148710D+00  0.300409D+00
     19 -0.123518D-02  0.866039D-04 -0.193300D-02 -0.767057D-02 -0.357724D-02
     20  0.155797D-02  0.801406D-04 -0.715829D-03 -0.109086D-02  0.818872D-03
     21 -0.933524D-03 -0.539186D-03  0.164277D-02  0.181436D-02 -0.691884D-03
     22 -0.709163D-03  0.497876D-04 -0.168628D-03 -0.114365D-03  0.214007D-03
     23 -0.134380D-03  0.152555D-02  0.739801D-04 -0.619866D-03  0.621343D-03
     24  0.673797D-04 -0.140130D-03 -0.296574D-03 -0.372834D-04  0.102566D-03
     25 -0.620754D-03 -0.418341D-04  0.103565D-03 -0.435681D-03 -0.433345D-03
     26 -0.644737D-03  0.135287D-02  0.310132D-03 -0.120732D-02  0.567306D-04
     27 -0.876466D-03  0.567316D-03  0.262256D-03 -0.126558D-02 -0.426889D-03
     28 -0.272840D-03 -0.919655D-04  0.443860D-03  0.111698D-03 -0.120322D-03
     29  0.513644D-04 -0.890449D-04  0.146712D-03  0.370575D-03 -0.250823D-03
     30 -0.485082D-03 -0.139058D-03  0.237043D-03 -0.686337D-03 -0.803157D-03
     31 -0.980790D-03  0.167870D-03  0.335469D-03  0.293281D-03  0.427755D-03
     32  0.240237D-02  0.295397D-03 -0.716566D-03 -0.537098D-03  0.178962D-02
     33 -0.352415D-03 -0.594615D-04  0.366106D-03  0.755451D-03 -0.108144D-02
     34  0.109649D-02 -0.270747D-02  0.189550D-02 -0.106013D-02 -0.339865D-02
     35 -0.692284D-03  0.463610D-03 -0.124846D-03 -0.215906D-02  0.212108D-03
     36 -0.153429D-03  0.188336D-03  0.171184D-05  0.107555D-02 -0.218947D-02
     37 -0.420020D+00 -0.526511D-01  0.146888D+00  0.564577D-02 -0.752989D-02
     38 -0.888863D-01 -0.513760D-01  0.498957D-01 -0.665002D-02 -0.226151D-02
     39  0.173904D+00  0.399769D-01 -0.920685D-01  0.170156D-02 -0.994898D-03
                6             7             8             9            10 
      6  0.354634D+00
      7 -0.297489D-02  0.670791D+00
      8  0.900364D-03  0.381039D-02  0.431935D+00
      9  0.107659D-02 -0.861639D-01 -0.211116D+00  0.386036D+00
     10  0.138234D-01 -0.121869D+00  0.471332D-01 -0.178919D-02  0.513299D+00
     11  0.250929D-01  0.692874D-01 -0.202226D+00  0.478170D-01 -0.291680D-01
     12  0.302953D-02  0.220611D-01  0.686743D-02 -0.767175D-01 -0.135195D-01
     13  0.476529D-02  0.616273D-02  0.195294D-01  0.930092D-02 -0.999004D-01
     14 -0.151113D-02 -0.548946D-02 -0.393578D-01 -0.192173D-01 -0.224751D-01
     15 -0.487925D-02  0.285448D-02 -0.157222D-03  0.438003D-02 -0.246128D-01
     16  0.161525D+00 -0.263255D-01  0.812751D-02  0.804751D-03 -0.185113D+00
     17  0.295268D+00  0.347503D-01 -0.459024D-02 -0.673128D-02 -0.936830D-02
     18 -0.337437D+00  0.516413D-03  0.847521D-04 -0.756162D-03  0.307090D-01
     19  0.102163D-03  0.235141D-02  0.122268D-01 -0.153125D-01 -0.519171D-01
     20 -0.162954D-03  0.246050D-03 -0.206824D-01  0.275316D-01 -0.863398D-03
     21  0.642963D-03 -0.190449D-02  0.426605D-02  0.423652D-02  0.820854D-02
     22 -0.297970D-03  0.598835D-04 -0.326020D-02 -0.190236D-02  0.641085D-02
     23 -0.335924D-03 -0.152264D-02 -0.528742D-02 -0.420991D-02  0.116241D-01
     24 -0.385521D-04 -0.135505D-02 -0.442323D-02 -0.486732D-03  0.115972D-01
     25  0.792214D-03  0.211124D-02  0.907753D-03 -0.972422D-04 -0.141830D-01
     26  0.142689D-02 -0.275648D-03  0.285853D-02  0.724779D-03 -0.253058D-01
     27  0.221393D-02 -0.164729D-03  0.224893D-02  0.734233D-04 -0.221711D-01
     28  0.836874D-03 -0.111500D-03  0.737080D-03  0.109825D-02 -0.146369D-02
     29  0.508075D-03  0.957152D-04  0.300970D-02  0.118855D-02 -0.219904D-03
     30  0.122050D-02  0.744505D-03  0.525535D-03  0.311008D-02 -0.161027D-02
     31 -0.207542D-03 -0.428818D+00 -0.386682D-01 -0.742425D-02 -0.163451D-01
     32 -0.215574D-03 -0.661071D-01 -0.533313D-01  0.215056D-01  0.390737D-01
     33  0.452189D-03 -0.519644D-01  0.170848D-01 -0.288311D-01 -0.756248D-03
     34  0.196727D-02 -0.923762D-01 -0.454324D-01  0.977334D-01  0.678221D-02
     35 -0.141053D-02 -0.411292D-01 -0.115476D+00  0.144007D+00 -0.817761D-02
[...]
 ! R7    R(4,5)                  1.5349         -DE/DX =    0.0                 !
 ! R8    R(4,6)                  1.5117         -DE/DX =    0.0                 !
 ! R9    R(4,7)                  1.0924         -DE/DX =    0.0                 !
 ! R10   R(5,8)                  1.0902         -DE/DX =    0.0                 !
 ! R11   R(5,9)                  1.0904         -DE/DX =    0.0                 !
 ! R12   R(5,10)                 1.0914         -DE/DX =    0.0                 !
 ! A1    A(6,1,13)             107.2986         -DE/DX =    0.0                 !
 ! A2    A(4,3,11)             110.8026         -DE/DX =    0.0                 !
 ! A3    A(4,3,12)             109.6693         -DE/DX =    0.0                 !
 ! A4    A(11,3,12)            108.6197         -DE/DX =    0.0                 !
 ! A5    A(3,4,5)              114.9369         -DE/DX =    0.0                 !
 ! A6    A(3,4,6)              108.1893         -DE/DX =    0.0                 !
 ! A7    A(3,4,7)              109.6            -DE/DX =    0.0                 !
 ! A8    A(5,4,6)              107.7413         -DE/DX =    0.0                 !
 ! A9    A(5,4,7)              108.7631         -DE/DX =    0.0                 !
 ! A10   A(6,4,7)              107.3373         -DE/DX =    0.0                 !
 ! A11   A(4,5,8)              111.4495         -DE/DX =    0.0                 !
 ! A12   A(4,5,9)              109.4151         -DE/DX =    0.0                 !
 ! A13   A(4,5,10)             109.9528         -DE/DX =    0.0                 !
 ! A14   A(8,5,9)              108.3874         -DE/DX =    0.0                 !
 ! A15   A(8,5,10)             109.0977         -DE/DX =    0.0                 !
 ! A16   A(9,5,10)             108.4748         -DE/DX =    0.0                 !
 ! A17   A(1,6,2)              122.8719         -DE/DX =    0.0                 !
 ! A18   A(1,6,4)              112.0926         -DE/DX =    0.0                 !
 ! A19   A(2,6,4)              124.9692         -DE/DX =    0.0                 !
 ! D1    D(13,1,6,2)            -0.6274         -DE/DX =    0.0                 !
 ! D2    D(13,1,6,4)           176.5427         -DE/DX =    0.0                 !
 ! D3    D(11,3,4,5)            39.1312         -DE/DX =    0.0                 !
 ! D4    D(11,3,4,6)           159.5623         -DE/DX =    0.0                 !
 ! D5    D(11,3,4,7)           -83.6963         -DE/DX =    0.0                 !
 ! D6    D(12,3,4,5)           -80.7706         -DE/DX =    0.0                 !
 ! D7    D(12,3,4,6)            39.6605         -DE/DX =    0.0                 !
 ! D8    D(12,3,4,7)           156.4019         -DE/DX =    0.0                 !
 ! D9    D(3,4,5,8)           -179.4474         -DE/DX =    0.0                 !
 ! D10   D(3,4,5,9)            -59.5913         -DE/DX =    0.0                 !
 ! D11   D(3,4,5,10)            59.4475         -DE/DX =    0.0                 !
 ! D12   D(6,4,5,8)             59.8754         -DE/DX =    0.0                 !
 ! D13   D(6,4,5,9)            179.7315         -DE/DX =    0.0                 !
 ! D14   D(6,4,5,10)           -61.2297         -DE/DX =    0.0                 !
 ! D15   D(7,4,5,8)            -56.1724         -DE/DX =    0.0                 !
 ! D16   D(7,4,5,9)             63.6836         -DE/DX =    0.0                 !
 ! D17   D(7,4,5,10)          -177.2776         -DE/DX =    0.0                 !
 ! D18   D(3,4,6,1)            157.2236         -DE/DX =    0.0                 !
 ! D19   D(3,4,6,2)            -25.6768         -DE/DX =    0.0                 !
 ! D20   D(5,4,6,1)            -77.9508         -DE/DX =    0.0                 !
 ! D21   D(5,4,6,2)             99.1487         -DE/DX =    0.0                 !
 ! D22   D(7,4,6,1)             39.0284         -DE/DX =    0.0                 !
 ! D23   D(7,4,6,2)           -143.8721         -DE/DX =    0.0                 !
 --------------------------------------------------------------------------------
 GradGradGradGradGradGradGradGradGradGradGradGradGradGradGradGradGradGrad

 Leave Link  103 at Tue Feb 13 13:56:20 2024, MaxMem=  3221225472 cpu:               0.2 elap:               0.0
 (Enter /opt/g16/l9999.exe)

 ----------------------------------------------------------------------

 Electric dipole moment (input orientation):
 (Debye = 10**-18 statcoulomb cm , SI units = C m)
                  (au)            (Debye)         (10**-30 SI)
   Tot        0.857386D+00      0.217926D+01      0.726922D+01
   x         -0.299064D+00     -0.760144D+00     -0.253557D+01
   y         -0.797527D+00     -0.202711D+01     -0.676171D+01
   z         -0.980924D-01     -0.249326D+00     -0.831662D+00

 Dipole polarizability, Alpha (input orientation).
 (esu units = cm**3 , SI units = C**2 m**2 J**-1)
 Alpha(0;0):
               (au)            (10**-24 esu)      (10**-40 SI)
   iso        0.500064D+02      0.741018D+01      0.824494D+01
   aniso      0.120294D+02      0.178257D+01      0.198338D+01
   xx         0.549382D+02      0.814101D+01      0.905809D+01
   yx        -0.568505D+00     -0.842438D-01     -0.937339D-01
   yy         0.518464D+02      0.768285D+01      0.854832D+01
   zx        -0.612711D+00     -0.907943D-01     -0.101022D+00
   zy        -0.327920D+01     -0.485927D+00     -0.540667D+00
   zz         0.432345D+02      0.640669D+01      0.712841D+01

 ----------------------------------------------------------------------

 Dipole orientation:
     8          2.69360242          2.04897455          0.53428912
     8          1.84684306         -1.10290234         -2.14197845
     7         -3.20256618         -0.74128335         -1.14751003
     6         -1.44166135          0.33381205          0.65620258
     6         -1.26938860         -1.07501051          3.18577842
     6          1.15991008          0.32543298         -0.52379015
     1         -1.94348267          2.30196548          1.02512978
     1          0.06765945         -0.16770446          4.46390964
     1         -3.12190174         -1.09189193          4.08794809
     1         -0.68018692         -3.02559302          2.86633821
     1         -4.78554814         -1.35474538         -0.26810797
     1         -2.38441485         -2.22635557         -2.04123403
     1          4.34022295          1.86073167         -0.24078611

 Electric dipole moment (dipole orientation):
 (Debye = 10**-18 statcoulomb cm , SI units = C m)
                  (au)            (Debye)         (10**-30 SI)
   Tot        0.857386D+00      0.217926D+01      0.726922D+01
   x          0.000000D+00      0.000000D+00      0.000000D+00
   y          0.000000D+00      0.000000D+00      0.000000D+00
   z          0.857386D+00      0.217926D+01      0.726922D+01

 Dipole polarizability, Alpha (dipole orientation).
 (esu units = cm**3 , SI units = C**2 m**2 J**-1)
 Alpha(0;0):
               (au)            (10**-24 esu)      (10**-40 SI)
   iso        0.500064D+02      0.741018D+01      0.824494D+01
   aniso      0.120294D+02      0.178257D+01      0.198338D+01
   xx         0.532618D+02      0.789259D+01      0.878169D+01
   yx         0.394436D+01      0.584494D+00      0.650337D+00
   yy         0.457632D+02      0.678141D+01      0.754534D+01
   zx        -0.207633D+01     -0.307680D+00     -0.342340D+00
   zy         0.368476D+01      0.546025D+00      0.607534D+00
   zz         0.509941D+02      0.755655D+01      0.840779D+01

 ----------------------------------------------------------------------
 1\1\GINC-QTCOVIMASTER\Freq\RM062X\def2TZVP\C3H7N1O2\ALEJANDRO\13-Feb-2
 024\0\\#p freq m062X def2TZVP output=wfn geom=allcheckpoint guess=read
 \\opt alanine M062X def2TZVP\\0,1\O,1.4868349913,-0.9204206408,0.47903
 43607\O,1.0960557424,0.9003025464,-0.7540970943\N,-1.4120989384,1.1459
 616143,0.2957249225\C,-0.7492970386,-0.1403852357,0.3906893947\C,-1.35
 20557173,-1.2453791675,-0.4877239076\C,0.6936064348,0.0406169642,-0.02
 21980896\H,-0.7507243651,-0.4775333073,1.4297694848\H,-0.8178995517,-2
 .1878627009,-0.3652945192\H,-2.3944614358,-1.4020452935,-0.2087128804\
 H,-1.3158642804,-0.9481316664,-1.5372799135\H,-2.4151584699,1.02956152
 49,0.2327075329\H,-1.0902571536,1.6355387554,-0.5321832243\H,2.3771197
 824,-0.770323393,0.1293639334\\Version=ES64L-G16RevA.03\State=1-A\HF=-
 323.7457043\RMSD=2.921e-09\RMSF=1.858e-05\ZeroPoint=0.1089486\Thermal=
 0.1157442\Dipole=-0.2990639,-0.7975266,-0.0980924\DipoleDeriv=-0.87351
 21,0.4842167,-0.3026865,0.3800582,-0.8066628,0.2633598,-0.1696561,0.21
 16371,-0.4757824,-0.776661,-0.2182362,0.1898979,-0.0128009,-0.8514068,
 0.3273945,0.1118969,0.4339653,-0.6315115,-0.3727724,0.1311362,-0.01978
 76,0.0819323,-0.727402,-0.1218037,0.0064019,-0.1700742,-0.4352233,0.01
 47703,-0.2049827,0.0495009,-0.2153546,0.4838246,0.1063075,0.0840479,0.
 0027954,0.2200283,-0.0036057,-0.0332109,-0.0076451,0.0703819,-0.051859
 8,-0.0700329,0.0380215,-0.0452434,0.0297046,1.4035493,-0.1363728,0.028
 6659,-0.2538964,1.2491095,-0.6634946,-0.0486155,-0.7186085,0.7119052,0
 .0305811,0.0002481,-0.020807,0.0296722,-0.0139956,0.0239176,-0.0186283
 ,0.0539417,-0.0743464,0.0394657,0.0844552,-0.0162196,0.0530618,-0.0844
 948,-0.016909,-0.0192239,0.0105592,0.0560938,-0.1193739,-0.0456625,0.0
 314433,-0.0227372,0.0485434,-0.0119828,0.0400375,-0.014813,0.0455467,0
 .0615033,-0.0212372,0.0185733,-0.0099825,0.0296989,0.0749104,-0.015702
 4,0.014046,-0.0826149,0.0558286,-0.0207723,-0.0231346,-0.0763215,0.187
 5163,0.0441227,-0.0762263,0.0866215,0.2456091,0.2138402,0.0234237,0.03
 09238,0.0380529,0.2461273,-0.0021707,0.0076563,0.088677,0.1020687,0.32
 63867,-0.0430052,0.0412752,-0.0620663,0.2910018,0.0463811,0.0599907,0.
 046496,0.2885221\Polar=54.9382414,-0.5685053,51.8464303,-0.6127105,-3.
 2791991,43.2345074\Quadrupole=4.9747573,-3.1082572,-1.8665002,-1.56186
 47,1.2495212,-0.2021324\PG=C01 [X(C3H7N1O2)]\NImag=0\\0.62944204,-0.04
 988841,0.29027251,-0.11669498,-0.17242935,0.19834103,0.03571218,0.0256
 1361,-0.01992658,0.19108004,0.01857174,-0.06672635,0.06618435,0.174665
 10,0.50011470,-0.01588315,0.06526659,-0.01403355,-0.16713961,-0.383763
 43,0.35463384,-0.00942956,0.00095165,0.00129763,-0.00152209,0.00462080
 ,-0.00297489,0.67079067,-0.00200409,0.00153183,-0.00096587,-0.00236059
 ,0.00169863,0.00090036,0.00381039,0.43193472,0.00231667,-0.00079473,0.
 00121069,0.00142933,-0.00058769,0.00107659,-0.08616385,-0.21111559,0.3
 8603563,-0.02823504,0.00619456,0.00357763,-0.00898318,-0.01055594,0.01
 382344,-0.12186852,0.04713325,-0.00178919,0.51329859,0.03037064,0.0033
 4963,-0.00060320,-0.02741280,-0.00838876,0.02509286,0.06928738,-0.2022
 2605,0.04781698,-0.02916804,0.50197458,-0.01212406,0.00563654,0.009523
 63,0.03048717,0.02240951,0.00302953,0.02206113,0.00686743,-0.07671747,
 -0.01351946,-0.08350461,0.58348106,-0.00187440,0.00171433,0.00125328,-
 0.00168310,0.00191604,0.00476529,0.00616273,0.01952936,0.00930092,-0.0
 9990041,-0.03849022,-0.03383581,0.56701585,0.00225139,-0.00272483,-0.0
 0020746,0.00201235,0.00254388,-0.00151113,-0.00548946,-0.03935783,-0.0
 1921729,-0.02247512,-0.11595661,-0.03796983,-0.03733109,0.52253223,0.0
 0126827,-0.00115961,0.00028224,0.00308185,0.00143379,-0.00487925,0.002
 85448,-0.00015722,0.00438003,-0.02461285,-0.03900782,-0.11524544,-0.02
 543363,-0.05476468,0.53734194,-0.20287266,0.07060235,-0.01707183,-0.21
 137386,-0.17480006,0.16152522,-0.02632548,0.00812751,0.00080475,-0.185
 11283,-0.00294937,0.03091920,-0.01669441,-0.01856065,-0.00603794,0.677
 47918,0.08704470,-0.17795529,0.05915223,-0.16062403,-0.43022844,0.2952
 6840,0.03475032,-0.00459024,-0.00673128,-0.00936830,-0.07204882,-0.003
 79377,-0.02881601,-0.00700936,0.00433724,0.07292049,0.69913248,-0.0300
 5274,0.06362585,-0.10546887,0.14871012,0.30040862,-0.33743737,0.000516
 41,0.00008475,-0.00075616,0.03070901,-0.00686761,-0.09503847,-0.023377
 89,-0.00079374,0.00808083,-0.15821143,-0.34880735,0.53597009,-0.001235
 18,0.00008660,-0.00193300,-0.00767057,-0.00357724,0.00010216,0.0023514
 1,0.01222679,-0.01531246,-0.05191713,-0.00093678,0.00668858,0.00136332
 ,0.00216673,-0.01658804,0.00367719,-0.00903681,0.03411839,0.05572586,0
 .00155797,0.00008014,-0.00071583,-0.00109086,0.00081887,-0.00016295,0.
 00024605,-0.02068242,0.02753164,-0.00086340,-0.06444060,0.07148197,-0.
 00008618,0.00550012,-0.02485886,-0.00211213,-0.00334568,0.00609968,-0.
 00105257,0.08704333,-0.00093352,-0.00053919,0.00164277,0.00181436,-0.0
 0069188,0.00064296,-0.00190449,0.00426605,0.00423652,0.00820854,0.0737
 8976,-0.28850760,0.00045034,0.00233530,-0.01969516,-0.00135881,0.00448
 059,-0.01117508,-0.00411598,-0.08033321,0.31107690,-0.00070916,0.00004
 979,-0.00016863,-0.00011437,0.00021401,-0.00029797,0.00005988,-0.00326
 020,-0.00190236,0.00641085,-0.01102664,0.00366959,-0.11448749,0.117297
 33,-0.01613875,0.00093196,-0.00096708,0.00080311,0.00045343,0.00062918
 ,0.00020395,0.12051349,-0.00013438,0.00152555,0.00007398,-0.00061987,0
 .00062134,-0.00033592,-0.00152264,-0.00528742,-0.00420991,0.01162405,-
 0.01650347,0.00620740,0.11511872,-0.24882422,0.02699181,0.00220065,-0.
 00257476,0.00078928,0.00004337,0.00069781,-0.00024668,-0.12634689,0.27
 035545,0.00006738,-0.00014013,-0.00029657,-0.00003728,0.00010257,-0.00
 003855,-0.00135505,-0.00442323,-0.00048673,0.01159724,-0.01383024,0.00
 320766,-0.01663888,0.02844208,-0.05289711,0.00031707,0.00005649,0.0006
 3964,0.00048224,0.00073252,0.00014652,0.01806454,-0.02874731,0.0514531
 9,-0.00062075,-0.00004183,0.00010356,-0.00043568,-0.00043334,0.0007922
 1,0.00211124,0.00090775,-0.00009724,-0.01418303,-0.00156138,0.00292944
 ,-0.29409533,-0.03481752,0.06962645,0.00171374,-0.00079220,-0.00293478
 ,0.00046226,0.00020282,-0.00025693,-0.01356869,-0.00283640,0.00400264,
 0.31786534,-0.00064474,0.00135287,0.00031013,-0.00120732,0.00005673,0.
 00142689,-0.00027565,0.00285853,0.00072478,-0.02530584,-0.00715446,0.0
 0428507,-0.03387660,-0.05013988,0.01149027,0.00179284,-0.00436372,-0.0
 0405239,0.00110050,0.00093343,0.00051672,0.02672231,0.00541629,-0.0082
 1435,0.03982172,0.05397329,-0.00087647,0.00056732,0.00026226,-0.001265
 58,-0.00042689,0.00221393,-0.00016473,0.00224893,0.00007342,-0.0221710
 8,-0.00540914,0.00336944,0.07060317,0.01097967,-0.06524241,0.00134800,
 -0.00303248,-0.00392961,0.00022476,0.00101974,0.00104239,-0.00423528,-
 0.00082537,0.00007299,-0.07416280,-0.00843970,0.06860257,-0.00027284,-
 0.00009197,0.00044386,0.00011170,-0.00012032,0.00083687,-0.00011150,0.
 00073708,0.00109825,-0.00146369,0.00397197,-0.01491072,-0.04813266,-0.
 00271526,0.01145897,0.00103203,0.00138416,-0.00268926,-0.00056545,-0.0
 0241206,-0.00163038,0.00043982,0.00318104,-0.01589813,0.00028078,-0.00
 869079,0.03001043,0.04848584,0.00005136,-0.00008904,0.00014671,0.00037
 057,-0.00025082,0.00050808,0.00009572,0.00300970,0.00118855,-0.0002199
 0,0.00499506,-0.02484303,-0.00181133,-0.06893285,0.07470960,0.00125441
 ,0.00156342,-0.00110746,-0.00236671,-0.00317622,-0.00300338,-0.0030308
 8,-0.00614028,0.02634261,0.00036824,-0.00218260,0.00324625,0.00513859,
 0.07162544,-0.00048508,-0.00013906,0.00023704,-0.00068634,-0.00080316,
 0.00122050,0.00074450,0.00052553,0.00311008,-0.00161027,0.00575302,-0.
 02014723,0.01114933,0.07296316,-0.29409055,0.00195253,0.00135704,-0.00
 157460,-0.00201719,-0.00314394,-0.00053377,0.00018454,0.00017477,-0.00
 127921,-0.00028829,0.00181994,-0.00683027,-0.00924135,-0.07729059,0.32
 050027,-0.00098079,0.00016787,0.00033547,0.00029328,0.00042776,-0.0002
 0754,-0.42881820,-0.03866817,-0.00742425,-0.01634507,-0.00473465,-0.00
 299028,0.00267736,-0.00234948,0.00021996,0.00014027,0.00184969,-0.0013
 2006,-0.00058805,0.00046500,0.00010287,0.00010270,-0.00074091,-0.00048
 575,0.00037128,0.00077081,0.00063313,-0.00003682,0.00043364,0.00024192
 ,0.45419171,0.00240237,0.00029540,-0.00071657,-0.00053710,0.00178962,-
 0.00021557,-0.06610711,-0.05333133,0.02150562,0.03907371,0.00021270,-0
 .00124362,0.00139587,0.00263809,-0.00001789,0.00057857,-0.00761024,0.0
 0243650,-0.00013252,0.00002059,0.00047014,-0.00033983,0.00034570,0.000
 31984,-0.00096738,-0.00082760,0.00012880,-0.00014601,-0.00008479,-0.00
 029704,0.04360727,0.05921868,-0.00035241,-0.00005946,0.00036611,0.0007
 5545,-0.00108144,0.00045219,-0.05196440,0.01708480,-0.02883111,-0.0007
 5625,-0.00446746,-0.00233617,0.00024763,0.00106571,0.00061985,0.001863
 86,0.00071796,-0.00136528,-0.00052284,0.00057499,-0.00035679,-0.000109
 37,0.00050314,0.00000329,0.00007619,-0.00010542,0.00038738,0.00037506,
 -0.00009119,-0.00029690,0.01701352,-0.01633357,0.02973938,0.00109649,-
 0.00270747,0.00189550,-0.00106013,-0.00339865,0.00196727,-0.09237621,-
 0.04543239,0.09773339,0.00678221,0.00744384,-0.01770208,-0.00078758,0.
 00015161,0.00037865,0.00012088,0.00784235,-0.00544142,-0.00269291,0.00
 470701,-0.00075222,0.00012770,0.00026407,-0.00006923,-0.00009032,-0.00
 015076,0.00000904,0.00033666,-0.00027456,0.00009371,-0.01103493,-0.019
 33664,0.03350572,0.09993729,-0.00069228,0.00046361,-0.00012485,-0.0021
 5906,0.00021211,-0.00141053,-0.04112918,-0.11547551,0.14400695,-0.0081
 7761,-0.02230191,0.03058439,0.00025034,-0.00031716,0.00117703,0.000835
 25,-0.00054090,0.00236174,0.00174179,-0.00314283,-0.00117945,0.0000614
 1,0.00020536,-0.00082694,0.00010084,-0.00002858,-0.00007474,-0.0001620
 5,-0.00042100,-0.00087734,-0.00138985,-0.00242926,0.00213688,0.0506226
 3,0.14375715,-0.00015343,0.00018834,0.00000171,0.00107555,-0.00218947,
 -0.00097262,0.11800619,0.18508650,-0.29373181,-0.00321894,-0.00309129,
 -0.00625328,0.00081087,-0.00140246,0.00152343,0.00156835,0.00149551,0.
 00006089,-0.00089919,0.00213241,0.00102459,-0.00000322,-0.00042626,-0.
 00061094,0.00014310,0.00007631,-0.00002309,0.00027537,0.00018944,-0.00
 021899,-0.00604339,-0.00633090,0.00149584,-0.11161427,-0.17572019,0.29
 761651,-0.42002032,-0.05265109,0.14688808,0.00564577,-0.00752989,0.002
 69070,-0.00102439,-0.00074670,0.00000605,0.00151725,0.00520605,-0.0016
 7269,0.00043613,-0.00014084,-0.00007744,-0.04271601,0.00381272,0.00917
 054,0.00063581,-0.00019084,0.00017227,-0.00016012,-0.00023081,-0.00004
 678,0.00018916,-0.00005648,0.00004741,-0.00010387,-0.00000916,-0.00003
 800,0.00002725,0.00050879,-0.00013216,-0.00035915,0.00009777,0.0000530
 2,0.45593249,-0.08888629,-0.05137602,0.04989572,-0.00665002,-0.0022615
 1,-0.00106363,0.00076173,-0.00008259,-0.00011804,0.00210859,-0.0015112
 8,0.00388252,0.00048676,0.00004842,-0.00017365,0.04011012,0.00957154,-
 0.01417788,-0.00026314,-0.00030655,0.00013524,-0.00000251,0.00016264,0
 .00018610,0.00004868,0.00010571,0.00001761,-0.00007438,0.00008399,-0.0
 0004234,0.00016102,-0.00023757,0.00005506,0.00026896,0.00001894,-0.000
 00793,0.05193048,0.04578429,0.17390352,0.03997689,-0.09206849,0.001701
 56,-0.00099490,-0.00590820,-0.00095292,-0.00040245,0.00040032,-0.00023
 782,0.00432875,0.00163433,0.00070540,0.00008067,-0.00017839,-0.0176190
 0,-0.00450057,0.01199398,-0.00022743,-0.00035817,0.00045573,-0.0000701
 4,0.00005107,0.00008582,0.00006645,0.00016175,0.00000099,-0.00012896,0
 .00000440,-0.00009636,-0.00007560,0.00029426,0.00012220,-0.00000406,-0
 .00005294,0.00008776,-0.15706100,-0.03858877,0.08347030\\0.00000685,-0
 .00000628,0.00000099,-0.00000284,-0.00003533,0.00002109,0.00001997,0.0
 0001096,0.00003049,-0.00002810,-0.00004361,-0.00003623,-0.00000013,0.0
 0001524,0.00001874,-0.00000765,0.00006659,-0.00002312,-0.00000176,0.00
 001192,0.00000284,0.00000275,0.00000304,0.00000117,0.00000102,0.000000
 57,-0.00000244,-0.00000469,-0.00000106,0.00000053,0.00000305,-0.000011
 97,-0.00000674,0.00000564,-0.00001099,-0.00000459,0.00000588,0.0000009
 0,-0.00000272\\\@

 Writing a WFN file to "alanine_m062X_def2TZVP.wfn"


 NOTHING MAKES A PERSON MORE PRODUCTIVE THAN THE LAST MINUTE.
 Job cpu time:       0 days  0 hours 29 minutes 51.4 seconds.
 Elapsed time:       0 days  0 hours  3 minutes 44.1 seconds.
 File lengths (MBytes):  RWF=     69 Int=      0 D2E=      0 Chk=      5 Scr=      1
 Normal termination of Gaussian 16 at Tue Feb 13 13:56:20 2024.
