 Entering Gaussian System, Link 0=/usr/local/g16_bin/g16.exe
 Input=alanine_conf3.com
 Output=alanine_conf3.log
 Initial command:
 /usr/local/g16_bin/l1.exe "/scratch/16209.qtcovimaster/Gau-163329.inp" -scrdir="/scratch/16209.qtcovimaster/"
 Default is to use a total of   8 processors:
                                8 via shared-memory
                                1 via Linda
 Entering Link 1 = /usr/local/g16_bin/l1.exe PID=    163330.
  
 Copyright (c) 1988-2019, Gaussian, Inc.  All Rights Reserved.
  
 This is part of the Gaussian(R) 16 program.  It is based on
 the Gaussian(R) 09 system (copyright 2009, Gaussian, Inc.),
 the Gaussian(R) 03 system (copyright 2003, Gaussian, Inc.),
 the Gaussian(R) 98 system (copyright 1998, Gaussian, Inc.),
 the Gaussian(R) 94 system (copyright 1995, Gaussian, Inc.),
 the Gaussian 92(TM) system (copyright 1992, Gaussian, Inc.),
 the Gaussian 90(TM) system (copyright 1990, Gaussian, Inc.),
 the Gaussian 88(TM) system (copyright 1988, Gaussian, Inc.),
 the Gaussian 86(TM) system (copyright 1986, Carnegie Mellon
 University), and the Gaussian 82(TM) system (copyright 1983,
 Carnegie Mellon University). Gaussian is a federally registered
 trademark of Gaussian, Inc.
  
 This software contains proprietary and confidential information,
 including trade secrets, belonging to Gaussian, Inc.
  
 This software is provided under written license and may be
 used, copied, transmitted, or stored only in accord with that
 written license.
  
 The following legend is applicable only to US Government
 contracts under FAR:
  
                    RESTRICTED RIGHTS LEGEND
  
 Use, reproduction and disclosure by the US Government is
 subject to restrictions as set forth in subparagraphs (a)
 and (c) of the Commercial Computer Software - Restricted
 Rights clause in FAR 52.227-19.
  
 Gaussian, Inc.
 340 Quinnipiac St., Bldg. 40, Wallingford CT 06492
  
  
 ---------------------------------------------------------------
 Warning -- This program may not be used in any manner that
 competes with the business of Gaussian, Inc. or will provide
 assistance to any competitor of Gaussian, Inc.  The licensee
 of this program is prohibited from giving any competitor of
 Gaussian, Inc. access to this program.  By using this program,
 the user acknowledges that Gaussian, Inc. is engaged in the
 business of creating and licensing software in the field of
 computational chemistry and represents and warrants to the
 licensee that it is not a competitor of Gaussian, Inc. and that
 it will not use this program in any manner prohibited above.
 ---------------------------------------------------------------
  

 Cite this work as:
 Gaussian 16, Revision C.01,
 M. J. Frisch, G. W. Trucks, H. B. Schlegel, G. E. Scuseria, 
 M. A. Robb, J. R. Cheeseman, G. Scalmani, V. Barone, 
 G. A. Petersson, H. Nakatsuji, X. Li, M. Caricato, A. V. Marenich, 
 J. Bloino, B. G. Janesko, R. Gomperts, B. Mennucci, H. P. Hratchian, 
 J. V. Ortiz, A. F. Izmaylov, J. L. Sonnenberg, D. Williams-Young, 
 F. Ding, F. Lipparini, F. Egidi, J. Goings, B. Peng, A. Petrone, 
 T. Henderson, D. Ranasinghe, V. G. Zakrzewski, J. Gao, N. Rega, 
 G. Zheng, W. Liang, M. Hada, M. Ehara, K. Toyota, R. Fukuda, 
 J. Hasegawa, M. Ishida, T. Nakajima, Y. Honda, O. Kitao, H. Nakai, 
 T. Vreven, K. Throssell, J. A. Montgomery, Jr., J. E. Peralta, 
 F. Ogliaro, M. J. Bearpark, J. J. Heyd, E. N. Brothers, K. N. Kudin, 
 V. N. Staroverov, T. A. Keith, R. Kobayashi, J. Normand, 
 K. Raghavachari, A. P. Rendell, J. C. Burant, S. S. Iyengar, 
 J. Tomasi, M. Cossi, J. M. Millam, M. Klene, C. Adamo, R. Cammi, 
 J. W. Ochterski, R. L. Martin, K. Morokuma, O. Farkas, 
 J. B. Foresman, and D. J. Fox, Gaussian, Inc., Wallingford CT, 2019.
 
 ******************************************
 Gaussian 16:  ES64L-G16RevC.01  3-Jul-2019
                13-Feb-2024 
 ******************************************
 %mem=48GB
 %nproc=16
 Will use up to   16 processors via shared memory.
 Default route: Maxdisk=400Gb
 --------------------------
 #p m062X def2TZVP opt freq
 --------------------------
 1/18=20,19=15,26=3,38=1/1,3;
 2/9=110,12=2,17=6,18=5,40=1/2;
 3/5=44,7=101,11=2,25=1,30=1,71=1,74=-55/1,2,3;
 4//1;
 5/5=2,38=5/2;
 6/7=2,8=2,9=2,10=2,28=1/1;
 7//1,2,3,16;
 1/18=20,19=15,26=3/3(2);
 2/9=110/2;
 99//99;
 2/9=110/2;
 3/5=44,7=101,11=2,25=1,30=1,71=1,74=-55/1,2,3;
 4/5=5,16=3,69=1/1;
 5/5=2,38=5/2;
 7//1,2,3,16;
 1/18=20,19=15,26=3/3(-5);
 2/9=110/2;
 6/7=2,8=2,9=2,10=2,19=2,28=1/1;
 99/9=1/99;
 Leave Link    1 at Tue Feb 13 18:32:26 2024, MaxMem=  6442450944 cpu:               0.7 elap:               0.1
 (Enter /usr/local/g16_bin/l101.exe)
 ------------
 5950 alanine
 ------------
 Symbolic Z-matrix:
 Charge =  0 Multiplicity = 1
 O                     1.44934  -1.05616   0.22934 
 O                     1.25541   1.12573  -0.3746 
 N                    -1.4105    1.1507    0.1821 
 C                    -0.7085   -0.1136    0.3937 
 C                    -1.3345   -1.2      -0.4702 
 C                     0.747     0.0903    0.0308 
 H                    -0.7666   -0.3737    1.4558 
 H                    -0.858    -2.1695   -0.2878 
 H                    -2.4023   -1.3127   -0.2521 
 H                    -1.2248   -0.9797   -1.5384 
 H                    -2.3916    1.042     0.4376 
 H                    -1.4071    1.3875   -0.8099 
 H                     2.39812  -0.94686   0.00511 
 
 ITRead=  0  0  0  0  0  0  0  0  0  0  0  0  0
 MicOpt= -1 -1 -1 -1 -1 -1 -1 -1 -1 -1 -1 -1 -1
 NAtoms=     13 NQM=       13 NQMF=       0 NMMI=      0 NMMIF=      0
                NMic=       0 NMicF=      0.
                    Isotopes and Nuclear Properties:
 (Nuclear quadrupole moments (NQMom) in fm**2, nuclear magnetic moments (NMagM)
  in nuclear magnetons)

  Atom         1           2           3           4           5           6           7           8           9          10
 IAtWgt=          16          16          14          12          12          12           1           1           1           1
 AtmWgt=  15.9949146  15.9949146  14.0030740  12.0000000  12.0000000  12.0000000   1.0078250   1.0078250   1.0078250   1.0078250
 NucSpn=           0           0           2           0           0           0           1           1           1           1
 AtZEff=   0.0000000   0.0000000   0.0000000   0.0000000   0.0000000   0.0000000   0.0000000   0.0000000   0.0000000   0.0000000
 NQMom=    0.0000000   0.0000000   2.0440000   0.0000000   0.0000000   0.0000000   0.0000000   0.0000000   0.0000000   0.0000000
 NMagM=    0.0000000   0.0000000   0.4037610   0.0000000   0.0000000   0.0000000   2.7928460   2.7928460   2.7928460   2.7928460
 AtZNuc=   8.0000000   8.0000000   7.0000000   6.0000000   6.0000000   6.0000000   1.0000000   1.0000000   1.0000000   1.0000000

  Atom        11          12          13
 IAtWgt=           1           1           1
 AtmWgt=   1.0078250   1.0078250   1.0078250
 NucSpn=           1           1           1
 AtZEff=   0.0000000   0.0000000   0.0000000
 NQMom=    0.0000000   0.0000000   0.0000000
 NMagM=    2.7928460   2.7928460   2.7928460
 AtZNuc=   1.0000000   1.0000000   1.0000000
 Leave Link  101 at Tue Feb 13 18:32:26 2024, MaxMem=  6442450944 cpu:               2.2 elap:               0.4
 (Enter /usr/local/g16_bin/l103.exe)

 GradGradGradGradGradGradGradGradGradGradGradGradGradGradGradGradGradGrad
 Berny optimization.
 Initialization pass.
                           ----------------------------
                           !    Initial Parameters    !
                           ! (Angstroms and Degrees)  !
 --------------------------                            --------------------------
 ! Name  Definition              Value          Derivative Info.                !
 --------------------------------------------------------------------------------
 ! R1    R(1,6)                  1.3591         estimate D2E/DX2                !
 ! R2    R(1,13)                 0.981          estimate D2E/DX2                !
 ! R3    R(2,6)                  1.2227         estimate D2E/DX2                !
 ! R4    R(3,4)                  1.4615         estimate D2E/DX2                !
 ! R5    R(3,11)                 1.0196         estimate D2E/DX2                !
 ! R6    R(3,12)                 1.0199         estimate D2E/DX2                !
 ! R7    R(4,5)                  1.5227         estimate D2E/DX2                !
 ! R8    R(4,6)                  1.5139         estimate D2E/DX2                !
 ! R9    R(4,7)                  1.095          estimate D2E/DX2                !
 ! R10   R(5,8)                  1.0956         estimate D2E/DX2                !
 ! R11   R(5,9)                  1.0957         estimate D2E/DX2                !
 ! R12   R(5,10)                 1.0962         estimate D2E/DX2                !
 ! A1    A(6,1,13)             111.8649         estimate D2E/DX2                !
 ! A2    A(4,3,11)             109.4917         estimate D2E/DX2                !
 ! A3    A(4,3,12)             109.8815         estimate D2E/DX2                !
 ! A4    A(11,3,12)            105.7649         estimate D2E/DX2                !
 ! A5    A(3,4,5)              109.7306         estimate D2E/DX2                !
 ! A6    A(3,4,6)              108.0946         estimate D2E/DX2                !
 ! A7    A(3,4,7)              108.6883         estimate D2E/DX2                !
 ! A8    A(5,4,6)              110.8161         estimate D2E/DX2                !
 ! A9    A(5,4,7)              111.0399         estimate D2E/DX2                !
 ! A10   A(6,4,7)              108.392          estimate D2E/DX2                !
 ! A11   A(4,5,8)              110.9848         estimate D2E/DX2                !
 ! A12   A(4,5,9)              111.1692         estimate D2E/DX2                !
 ! A13   A(4,5,10)             111.6138         estimate D2E/DX2                !
 ! A14   A(8,5,9)              107.4403         estimate D2E/DX2                !
 ! A15   A(8,5,10)             107.2511         estimate D2E/DX2                !
 ! A16   A(9,5,10)             108.1906         estimate D2E/DX2                !
 ! A17   A(1,6,2)              123.2248         estimate D2E/DX2                !
 ! A18   A(1,6,4)              110.3786         estimate D2E/DX2                !
 ! A19   A(2,6,4)              126.3939         estimate D2E/DX2                !
 ! D1    D(13,1,6,2)            -0.2574         estimate D2E/DX2                !
 ! D2    D(13,1,6,4)          -179.6901         estimate D2E/DX2                !
 ! D3    D(11,3,4,5)            60.1152         estimate D2E/DX2                !
 ! D4    D(11,3,4,6)          -178.9298         estimate D2E/DX2                !
 ! D5    D(11,3,4,7)           -61.4826         estimate D2E/DX2                !
 ! D6    D(12,3,4,5)           -55.6367         estimate D2E/DX2                !
 ! D7    D(12,3,4,6)            65.3183         estimate D2E/DX2                !
 ! D8    D(12,3,4,7)          -177.2346         estimate D2E/DX2                !
 ! D9    D(3,4,5,8)           -176.9764         estimate D2E/DX2                !
 ! D10   D(3,4,5,9)            -57.4537         estimate D2E/DX2                !
 ! D11   D(3,4,5,10)            63.445          estimate D2E/DX2                !
 ! D12   D(6,4,5,8)             63.7254         estimate D2E/DX2                !
 ! D13   D(6,4,5,9)           -176.7519         estimate D2E/DX2                !
 ! D14   D(6,4,5,10)           -55.8532         estimate D2E/DX2                !
 ! D15   D(7,4,5,8)            -56.7989         estimate D2E/DX2                !
 ! D16   D(7,4,5,9)             62.7238         estimate D2E/DX2                !
 ! D17   D(7,4,5,10)          -176.3775         estimate D2E/DX2                !
 ! D18   D(3,4,6,1)            179.1328         estimate D2E/DX2                !
 ! D19   D(3,4,6,2)             -0.2777         estimate D2E/DX2                !
 ! D20   D(5,4,6,1)            -60.5898         estimate D2E/DX2                !
 ! D21   D(5,4,6,2)            119.9997         estimate D2E/DX2                !
 ! D22   D(7,4,6,1)             61.4951         estimate D2E/DX2                !
 ! D23   D(7,4,6,2)           -117.9154         estimate D2E/DX2                !
 --------------------------------------------------------------------------------
 Trust Radius=3.00D-01 FncErr=1.00D-07 GrdErr=1.00D-06 EigMax=2.50D+02 EigMin=1.00D-04
 Number of steps in this run=     64 maximum allowed number of steps=    100.
 GradGradGradGradGradGradGradGradGradGradGradGradGradGradGradGradGradGrad

 Leave Link  103 at Tue Feb 13 18:32:26 2024, MaxMem=  6442450944 cpu:               0.2 elap:               0.1
 (Enter /usr/local/g16_bin/l202.exe)
                          Input orientation:                          
 ---------------------------------------------------------------------
 Center     Atomic      Atomic             Coordinates (Angstroms)
 Number     Number       Type             X           Y           Z
 ---------------------------------------------------------------------
      1          8           0        1.449340   -1.056160    0.229340
      2          8           0        1.255410    1.125730   -0.374600
      3          7           0       -1.410500    1.150700    0.182100
      4          6           0       -0.708500   -0.113600    0.393700
      5          6           0       -1.334500   -1.200000   -0.470200
      6          6           0        0.747000    0.090300    0.030800
      7          1           0       -0.766600   -0.373700    1.455800
      8          1           0       -0.858000   -2.169500   -0.287800
      9          1           0       -2.402300   -1.312700   -0.252100
     10          1           0       -1.224800   -0.979700   -1.538400
     11          1           0       -2.391600    1.042000    0.437600
     12          1           0       -1.407100    1.387500   -0.809900
     13          1           0        2.398120   -0.946860    0.005110
 ---------------------------------------------------------------------
                    Distance matrix (angstroms):
                    1          2          3          4          5
     1  O    0.000000
     2  O    2.272223   0.000000
     3  N    3.612637   2.723530   0.000000
     4  C    2.360446   2.446051   1.461517   0.000000
     5  C    2.873989   3.482211   2.440709   1.522650   0.000000
     6  C    1.359070   1.222680   2.408764   1.513853   2.499703
     7  H    2.623041   3.112423   2.088232   1.095027   2.171349
     8  H    2.613576   3.915683   3.398498   2.171064   1.095560
     9  H    3.890081   4.397703   2.690824   2.173444   1.095658
    10  H    3.206521   3.455243   2.744669   2.179382   1.096183
    11  H    4.381606   3.737293   1.019634   2.042098   2.639721
    12  H    3.900095   2.710529   1.019877   2.046948   2.610713
    13  H    0.981025   2.396997   4.351628   3.239817   3.771267
                    6          7          8          9         10
     6  C    0.000000
     7  H    2.130001   0.000000
     8  H    2.790023   2.504674   0.000000
     9  H    3.459268   2.544437   1.766421   0.000000
    10  H    2.737752   3.089080   1.764700   1.775377   0.000000
    11  H    3.304849   2.383603   3.632061   2.453653   3.058311
    12  H    2.651349   2.940317   3.636805   2.931321   2.483462
    13  H    1.950015   3.528238   3.490410   4.821206   3.938153
                   11         12         13
    11  H    0.000000
    12  H    1.626305   0.000000
    13  H    5.204232   4.537971   0.000000
 Stoichiometry    C3H7NO2
 Framework group  C1[X(C3H7NO2)]
 Deg. of freedom    33
 Full point group                 C1      NOp   1
 Largest Abelian subgroup         C1      NOp   1
 Largest concise Abelian subgroup C1      NOp   1
                         Standard orientation:                         
 ---------------------------------------------------------------------
 Center     Atomic      Atomic             Coordinates (Angstroms)
 Number     Number       Type             X           Y           Z
 ---------------------------------------------------------------------
      1          8           0        1.568382    0.913412   -0.245610
      2          8           0        1.230568   -1.243449    0.384333
      3          7           0       -1.424149   -1.110097   -0.209223
      4          6           0       -0.641796    0.104909   -0.427669
      5          6           0       -1.209978    1.240239    0.412961
      6          6           0        0.793225   -0.184157   -0.041784
      7          1           0       -0.669572    0.353165   -1.493822
      8          1           0       -0.671470    2.175507    0.224450
      9          1           0       -2.265691    1.416172    0.178476
     10          1           0       -1.128299    1.028573    1.485408
     11          1           0       -2.393098   -0.944084   -0.479835
     12          1           0       -1.448584   -1.332678    0.785769
     13          1           0        2.505450    0.748374   -0.006707
 ---------------------------------------------------------------------
 Rotational constants (GHZ):           5.1034246           3.2233105           2.2101370
 Leave Link  202 at Tue Feb 13 18:32:26 2024, MaxMem=  6442450944 cpu:               0.2 elap:               0.1
 (Enter /usr/local/g16_bin/l301.exe)
 Standard basis: def2TZVP (5D, 7F)
 Ernie: Thresh=  0.10000D-02 Tol=  0.10000D-05 Strict=F.
 There are   258 symmetry adapted cartesian basis functions of A   symmetry.
 There are   228 symmetry adapted basis functions of A   symmetry.
   228 basis functions,   362 primitive gaussians,   258 cartesian basis functions
    24 alpha electrons       24 beta electrons
       nuclear repulsion energy       249.1189412747 Hartrees.
 IExCor= 4336 DFT=T Ex+Corr=M062X ExCW=0 ScaHFX=  0.540000
 ScaDFX=  1.000000  1.000000  1.000000  1.000000 ScalE2=  1.000000  1.000000
 IRadAn=      5 IRanWt=     -1 IRanGd=            0 ICorTp=0 IEmpDi=  4
 NAtoms=   13 NActive=   13 NUniq=   13 SFac= 1.00D+00 NAtFMM=   60 NAOKFM=F Big=F
 Integral buffers will be    131072 words long.
 Raffenetti 2 integral format.
 Two-electron integral symmetry is turned on.
 Leave Link  301 at Tue Feb 13 18:32:27 2024, MaxMem=  6442450944 cpu:               0.4 elap:               0.1
 (Enter /usr/local/g16_bin/l302.exe)
 NPDir=0 NMtPBC=     1 NCelOv=     1 NCel=       1 NClECP=     1 NCelD=      1
         NCelK=      1 NCelE2=     1 NClLst=     1 CellRange=     0.0.
 One-electron integrals computed using PRISM.
 One-electron integral symmetry used in STVInt
   1 Symmetry operations used in ECPInt.
 ECPInt:  NShTT=    4465 NPrTT=   13356 LenC2=    4420 LenP2D=   10937.
 LDataN:  DoStor=T MaxTD1= 6 Len=  172
 GSVD:  received Info=                   1 from GESDD.
 NBasis=   228 RedAO= T EigKep=  1.99D-04  NBF=   228
 NBsUse=   228 1.00D-06 EigRej= -1.00D+00 NBFU=   228
 Precomputing XC quadrature grid using
 IXCGrd= 4 IRadAn=           5 IRanWt=          -1 IRanGd=           0 AccXCQ= 0.00D+00.
 Generated NRdTot=       0 NPtTot=           0 NUsed=           0 NTot=          32
 NSgBfM=   257   257   257   257   257 MxSgAt=    13 MxSgA2=    13.
 Leave Link  302 at Tue Feb 13 18:32:27 2024, MaxMem=  6442450944 cpu:               3.7 elap:               0.4
 (Enter /usr/local/g16_bin/l303.exe)
 DipDrv:  MaxL=1.
 Leave Link  303 at Tue Feb 13 18:32:27 2024, MaxMem=  6442450944 cpu:               0.7 elap:               0.2
 (Enter /usr/local/g16_bin/l401.exe)
 ExpMin= 9.52D-02 ExpMax= 2.70D+04 ExpMxC= 9.22D+02 IAcc=3 IRadAn=         5 AccDes= 0.00D+00
 Harris functional with IExCor= 1009 and IRadAn=       5 diagonalized for initial guess.
 HarFok:  IExCor= 1009 AccDes= 0.00D+00 IRadAn=         5 IDoV= 1 UseB2=F ITyADJ=14
 ICtDFT=  3500011 ScaDFX=  1.000000  1.000000  1.000000  1.000000
 FoFCou: FMM=F IPFlag=           0 FMFlag=      100000 FMFlg1=           0
         NFxFlg=           0 DoJE=T BraDBF=F KetDBF=T FulRan=T
         wScrn=  0.000000 ICntrl=       500 IOpCl=  0 I1Cent=   200000004 NGrid=           0
         NMat0=    1 NMatS0=      1 NMatT0=    0 NMatD0=    1 NMtDS0=    0 NMtDT0=    0
 Petite list used in FoFCou.
 Harris En= -323.616137753421    
 JPrj=0 DoOrth=F DoCkMO=F.
 Leave Link  401 at Tue Feb 13 18:32:28 2024, MaxMem=  6442450944 cpu:               9.4 elap:               0.7
 (Enter /usr/local/g16_bin/l502.exe)
 Integral symmetry usage will be decided dynamically.
 Closed shell SCF:
 Using DIIS extrapolation, IDIIS=  1040.
 NGot=  6442450944 LenX=  6442310950 LenY=  6442243945
 Requested convergence on RMS density matrix=1.00D-08 within 128 cycles.
 Requested convergence on MAX density matrix=1.00D-06.
 Requested convergence on             energy=1.00D-06.
 No special actions if energy rises.
 Fock matrices will be formed incrementally for  20 cycles.
 Integral accuracy reduced to 1.0D-05 until final iterations.

 Cycle   1  Pass 0  IDiag  1:
 FoFJK:  IHMeth= 1 ICntrl=       0 DoSepK=F KAlg= 0 I1Cent=           0 FoldK=F
 IRaf= 980000000 NMat=       1 IRICut=       1 DoRegI=T DoRafI=F ISym2E= 0 IDoP0=0 IntGTp=1.
 FoFCou: FMM=F IPFlag=           0 FMFlag=      100000 FMFlg1=           0
         NFxFlg=           0 DoJE=F BraDBF=F KetDBF=F FulRan=T
         wScrn=  0.000000 ICntrl=         0 IOpCl=  0 I1Cent=           0 NGrid=           0
         NMat0=    1 NMatS0=      1 NMatT0=    0 NMatD0=    1 NMtDS0=    0 NMtDT0=    0
 Symmetry not used in FoFCou.
 E= -323.521285750661    
 DIIS: error= 3.12D-02 at cycle   1 NSaved=   1.
 NSaved= 1 IEnMin= 1 EnMin= -323.521285750661     IErMin= 1 ErrMin= 3.12D-02
 ErrMax= 3.12D-02  0.00D+00 EMaxC= 1.00D-01 BMatC= 3.09D-01 BMatP= 3.09D-01
 IDIUse=3 WtCom= 6.88D-01 WtEn= 3.12D-01
 Coeff-Com:  0.100D+01
 Coeff-En:   0.100D+01
 Coeff:      0.100D+01
 Gap=     0.266 Goal=   None    Shift=    0.000
 DSYEVD-2 returned Info=       46028 IAlg= 4 N=   228 NDim=   228 NE2=    28255454 trying  DSYEV.
 GapD=    0.266 DampG=1.000 DampE=0.500 DampFc=0.5000 IDamp=-1.
 Damping current iteration by 5.00D-01
 RMSDP=4.54D-03 MaxDP=3.35D-01              OVMax= 1.93D-01

 Cycle   2  Pass 0  IDiag  1:
 RMSU=  2.26D-03    CP:  9.85D-01
 E= -323.622419735973     Delta-E=       -0.101133985312 Rises=F Damp=T
 DIIS: error= 7.59D-03 at cycle   2 NSaved=   2.
 NSaved= 2 IEnMin= 2 EnMin= -323.622419735973     IErMin= 2 ErrMin= 7.59D-03
 ErrMax= 7.59D-03  0.00D+00 EMaxC= 1.00D-01 BMatC= 2.30D-02 BMatP= 3.09D-01
 IDIUse=3 WtCom= 9.24D-01 WtEn= 7.59D-02
 Coeff-Com:  0.117D-01 0.988D+00
 Coeff-En:   0.393D-01 0.961D+00
 Coeff:      0.138D-01 0.986D+00
 Gap=     0.362 Goal=   None    Shift=    0.000
 DSYEVD-2 returned Info=       46028 IAlg= 4 N=   228 NDim=   228 NE2=    28255454 trying  DSYEV.
 RMSDP=1.08D-03 MaxDP=5.65D-02 DE=-1.01D-01 OVMax= 1.08D-01

 Cycle   3  Pass 0  IDiag  1:
 RMSU=  9.75D-04    CP:  9.81D-01  7.91D-01
 E= -323.729623704106     Delta-E=       -0.107203968133 Rises=F Damp=F
 DIIS: error= 4.87D-03 at cycle   3 NSaved=   3.
 NSaved= 3 IEnMin= 3 EnMin= -323.729623704106     IErMin= 3 ErrMin= 4.87D-03
 ErrMax= 4.87D-03  0.00D+00 EMaxC= 1.00D-01 BMatC= 1.19D-02 BMatP= 2.30D-02
 IDIUse=3 WtCom= 9.51D-01 WtEn= 4.87D-02
 Coeff-Com: -0.522D-01 0.414D+00 0.638D+00
 Coeff-En:   0.000D+00 0.000D+00 0.100D+01
 Coeff:     -0.497D-01 0.394D+00 0.656D+00
 Gap=     0.351 Goal=   None    Shift=    0.000
 DSYEVD-2 returned Info=       46028 IAlg= 4 N=   228 NDim=   228 NE2=    28255454 trying  DSYEV.
 RMSDP=4.48D-04 MaxDP=1.66D-02 DE=-1.07D-01 OVMax= 4.99D-02

 Cycle   4  Pass 0  IDiag  1:
 RMSU=  4.08D-04    CP:  9.82D-01  8.30D-01  8.34D-01
 E= -323.735725044899     Delta-E=       -0.006101340793 Rises=F Damp=F
 DIIS: error= 2.34D-03 at cycle   4 NSaved=   4.
 NSaved= 4 IEnMin= 4 EnMin= -323.735725044899     IErMin= 4 ErrMin= 2.34D-03
 ErrMax= 2.34D-03  0.00D+00 EMaxC= 1.00D-01 BMatC= 3.64D-03 BMatP= 1.19D-02
 IDIUse=3 WtCom= 9.77D-01 WtEn= 2.34D-02
 Coeff-Com: -0.251D-01 0.678D-01 0.381D+00 0.577D+00
 Coeff-En:   0.000D+00 0.000D+00 0.246D+00 0.754D+00
 Coeff:     -0.245D-01 0.662D-01 0.378D+00 0.581D+00
 Gap=     0.347 Goal=   None    Shift=    0.000
 DSYEVD-2 returned Info=       46028 IAlg= 4 N=   228 NDim=   228 NE2=    28255454 trying  DSYEV.
 RMSDP=1.91D-04 MaxDP=6.12D-03 DE=-6.10D-03 OVMax= 1.54D-02

 Cycle   5  Pass 0  IDiag  1:
 RMSU=  7.17D-05    CP:  9.81D-01  8.13D-01  9.23D-01  6.37D-01
 E= -323.738314028575     Delta-E=       -0.002588983676 Rises=F Damp=F
 DIIS: error= 3.20D-04 at cycle   5 NSaved=   5.
 NSaved= 5 IEnMin= 5 EnMin= -323.738314028575     IErMin= 5 ErrMin= 3.20D-04
 ErrMax= 3.20D-04  0.00D+00 EMaxC= 1.00D-01 BMatC= 6.63D-05 BMatP= 3.64D-03
 IDIUse=3 WtCom= 9.97D-01 WtEn= 3.20D-03
 Coeff-Com: -0.734D-02 0.122D-01 0.134D+00 0.238D+00 0.623D+00
 Coeff-En:   0.000D+00 0.000D+00 0.000D+00 0.000D+00 0.100D+01
 Coeff:     -0.732D-02 0.121D-01 0.134D+00 0.237D+00 0.624D+00
 Gap=     0.349 Goal=   None    Shift=    0.000
 DSYEVD-2 returned Info=       46028 IAlg= 4 N=   228 NDim=   228 NE2=    28255454 trying  DSYEV.
 RMSDP=2.55D-05 MaxDP=9.04D-04 DE=-2.59D-03 OVMax= 2.51D-03

 Cycle   6  Pass 0  IDiag  1:
 RMSU=  2.18D-05    CP:  9.81D-01  8.13D-01  9.29D-01  6.53D-01  8.61D-01
 E= -323.738363597579     Delta-E=       -0.000049569004 Rises=F Damp=F
 DIIS: error= 9.22D-05 at cycle   6 NSaved=   6.
 NSaved= 6 IEnMin= 6 EnMin= -323.738363597579     IErMin= 6 ErrMin= 9.22D-05
 ErrMax= 9.22D-05  0.00D+00 EMaxC= 1.00D-01 BMatC= 5.48D-06 BMatP= 6.63D-05
 IDIUse=1 WtCom= 1.00D+00 WtEn= 0.00D+00
 Coeff-Com: -0.140D-03-0.204D-02 0.129D-01 0.271D-01 0.231D+00 0.732D+00
 Coeff:     -0.140D-03-0.204D-02 0.129D-01 0.271D-01 0.231D+00 0.732D+00
 Gap=     0.349 Goal=   None    Shift=    0.000
 DSYEVD-2 returned Info=       46028 IAlg= 4 N=   228 NDim=   228 NE2=    28255454 trying  DSYEV.
 RMSDP=1.69D-05 MaxDP=7.50D-04 DE=-4.96D-05 OVMax= 6.41D-04

 Cycle   7  Pass 0  IDiag  1:
 RMSU=  9.92D-06    CP:  9.81D-01  8.08D-01  9.35D-01  6.56D-01  9.49D-01
                    CP:  1.02D+00
 E= -323.738368629697     Delta-E=       -0.000005032118 Rises=F Damp=F
 DIIS: error= 2.87D-05 at cycle   7 NSaved=   7.
 NSaved= 7 IEnMin= 7 EnMin= -323.738368629697     IErMin= 7 ErrMin= 2.87D-05
 ErrMax= 2.87D-05  0.00D+00 EMaxC= 1.00D-01 BMatC= 4.66D-07 BMatP= 5.48D-06
 IDIUse=1 WtCom= 1.00D+00 WtEn= 0.00D+00
 Coeff-Com:  0.973D-03-0.231D-02-0.121D-01-0.234D-01-0.900D-02 0.176D+00
 Coeff-Com:  0.870D+00
 Coeff:      0.973D-03-0.231D-02-0.121D-01-0.234D-01-0.900D-02 0.176D+00
 Coeff:      0.870D+00
 Gap=     0.349 Goal=   None    Shift=    0.000
 DSYEVD-2 returned Info=       46028 IAlg= 4 N=   228 NDim=   228 NE2=    28255454 trying  DSYEV.
 RMSDP=6.71D-06 MaxDP=3.67D-04 DE=-5.03D-06 OVMax= 3.90D-04

 Initial convergence to 1.0D-05 achieved.  Increase integral accuracy.
 Cycle   8  Pass 1  IDiag  1:
 E= -323.738370222970     Delta-E=       -0.000001593273 Rises=F Damp=F
 DIIS: error= 1.40D-05 at cycle   1 NSaved=   1.
 NSaved= 1 IEnMin= 1 EnMin= -323.738370222970     IErMin= 1 ErrMin= 1.40D-05
 ErrMax= 1.40D-05  0.00D+00 EMaxC= 1.00D-01 BMatC= 2.15D-07 BMatP= 2.15D-07
 IDIUse=1 WtCom= 1.00D+00 WtEn= 0.00D+00
 Coeff-Com:  0.100D+01
 Coeff:      0.100D+01
 Gap=     0.349 Goal=   None    Shift=    0.000
 DSYEVD-2 returned Info=       46028 IAlg= 4 N=   228 NDim=   228 NE2=    28255454 trying  DSYEV.
 RMSDP=6.71D-06 MaxDP=3.67D-04 DE=-1.59D-06 OVMax= 1.31D-04

 Cycle   9  Pass 1  IDiag  1:
 RMSU=  4.88D-06    CP:  1.00D+00
 E= -323.738370326059     Delta-E=       -0.000000103089 Rises=F Damp=F
 DIIS: error= 1.21D-05 at cycle   2 NSaved=   2.
 NSaved= 2 IEnMin= 2 EnMin= -323.738370326059     IErMin= 2 ErrMin= 1.21D-05
 ErrMax= 1.21D-05  0.00D+00 EMaxC= 1.00D-01 BMatC= 9.33D-08 BMatP= 2.15D-07
 IDIUse=1 WtCom= 1.00D+00 WtEn= 0.00D+00
 Coeff-Com:  0.365D+00 0.635D+00
 Coeff:      0.365D+00 0.635D+00
 Gap=     0.349 Goal=   None    Shift=    0.000
 DSYEVD-2 returned Info=       46028 IAlg= 4 N=   228 NDim=   228 NE2=    28255454 trying  DSYEV.
 RMSDP=1.29D-06 MaxDP=4.32D-05 DE=-1.03D-07 OVMax= 1.24D-04

 Cycle  10  Pass 1  IDiag  1:
 RMSU=  1.27D-06    CP:  1.00D+00  9.62D-01
 E= -323.738370383593     Delta-E=       -0.000000057534 Rises=F Damp=F
 DIIS: error= 6.52D-06 at cycle   3 NSaved=   3.
 NSaved= 3 IEnMin= 3 EnMin= -323.738370383593     IErMin= 3 ErrMin= 6.52D-06
 ErrMax= 6.52D-06  0.00D+00 EMaxC= 1.00D-01 BMatC= 2.52D-08 BMatP= 9.33D-08
 IDIUse=1 WtCom= 1.00D+00 WtEn= 0.00D+00
 Coeff-Com: -0.459D-02 0.330D+00 0.675D+00
 Coeff:     -0.459D-02 0.330D+00 0.675D+00
 Gap=     0.349 Goal=   None    Shift=    0.000
 DSYEVD-2 returned Info=       46028 IAlg= 4 N=   228 NDim=   228 NE2=    28255454 trying  DSYEV.
 RMSDP=7.17D-07 MaxDP=2.86D-05 DE=-5.75D-08 OVMax= 4.42D-05

 Cycle  11  Pass 1  IDiag  1:
 RMSU=  5.52D-07    CP:  1.00D+00  1.02D+00  7.14D-01
 E= -323.738370400151     Delta-E=       -0.000000016558 Rises=F Damp=F
 DIIS: error= 2.46D-06 at cycle   4 NSaved=   4.
 NSaved= 4 IEnMin= 4 EnMin= -323.738370400151     IErMin= 4 ErrMin= 2.46D-06
 ErrMax= 2.46D-06  0.00D+00 EMaxC= 1.00D-01 BMatC= 2.45D-09 BMatP= 2.52D-08
 IDIUse=1 WtCom= 1.00D+00 WtEn= 0.00D+00
 Coeff-Com: -0.279D-01 0.130D+00 0.337D+00 0.561D+00
 Coeff:     -0.279D-01 0.130D+00 0.337D+00 0.561D+00
 Gap=     0.349 Goal=   None    Shift=    0.000
 DSYEVD-2 returned Info=       46028 IAlg= 4 N=   228 NDim=   228 NE2=    28255454 trying  DSYEV.
 RMSDP=1.65D-07 MaxDP=8.44D-06 DE=-1.66D-08 OVMax= 2.46D-05

 Cycle  12  Pass 1  IDiag  1:
 RMSU=  1.46D-07    CP:  1.00D+00  1.03D+00  7.29D-01  8.87D-01
 E= -323.738370402173     Delta-E=       -0.000000002022 Rises=F Damp=F
 DIIS: error= 7.52D-07 at cycle   5 NSaved=   5.
 NSaved= 5 IEnMin= 5 EnMin= -323.738370402173     IErMin= 5 ErrMin= 7.52D-07
 ErrMax= 7.52D-07  0.00D+00 EMaxC= 1.00D-01 BMatC= 2.42D-10 BMatP= 2.45D-09
 IDIUse=1 WtCom= 1.00D+00 WtEn= 0.00D+00
 Coeff-Com: -0.676D-02-0.130D-01-0.313D-01 0.180D+00 0.871D+00
 Coeff:     -0.676D-02-0.130D-01-0.313D-01 0.180D+00 0.871D+00
 Gap=     0.349 Goal=   None    Shift=    0.000
 DSYEVD-2 returned Info=       46028 IAlg= 4 N=   228 NDim=   228 NE2=    28255454 trying  DSYEV.
 RMSDP=1.16D-07 MaxDP=5.37D-06 DE=-2.02D-09 OVMax= 6.76D-06

 Cycle  13  Pass 1  IDiag  1:
 RMSU=  5.54D-08    CP:  1.00D+00  1.03D+00  7.22D-01  1.07D+00  1.07D+00
 E= -323.738370402423     Delta-E=       -0.000000000249 Rises=F Damp=F
 DIIS: error= 2.69D-07 at cycle   6 NSaved=   6.
 NSaved= 6 IEnMin= 6 EnMin= -323.738370402423     IErMin= 6 ErrMin= 2.69D-07
 ErrMax= 2.69D-07  0.00D+00 EMaxC= 1.00D-01 BMatC= 4.25D-11 BMatP= 2.42D-10
 IDIUse=1 WtCom= 1.00D+00 WtEn= 0.00D+00
 Coeff-Com:  0.312D-02-0.325D-01-0.906D-01-0.205D-01 0.413D+00 0.727D+00
 Coeff:      0.312D-02-0.325D-01-0.906D-01-0.205D-01 0.413D+00 0.727D+00
 Gap=     0.349 Goal=   None    Shift=    0.000
 DSYEVD-2 returned Info=       46028 IAlg= 4 N=   228 NDim=   228 NE2=    28255454 trying  DSYEV.
 RMSDP=5.19D-08 MaxDP=2.53D-06 DE=-2.49D-10 OVMax= 3.79D-06

 Cycle  14  Pass 1  IDiag  1:
 RMSU=  1.89D-08    CP:  1.00D+00  1.03D+00  7.16D-01  1.15D+00  1.18D+00
                    CP:  9.56D-01
 E= -323.738370402470     Delta-E=       -0.000000000048 Rises=F Damp=F
 DIIS: error= 5.45D-08 at cycle   7 NSaved=   7.
 NSaved= 7 IEnMin= 7 EnMin= -323.738370402470     IErMin= 7 ErrMin= 5.45D-08
 ErrMax= 5.45D-08  0.00D+00 EMaxC= 1.00D-01 BMatC= 1.26D-12 BMatP= 4.25D-11
 IDIUse=1 WtCom= 1.00D+00 WtEn= 0.00D+00
 Coeff-Com:  0.116D-02-0.887D-02-0.257D-01-0.125D-01 0.749D-01 0.216D+00
 Coeff-Com:  0.755D+00
 Coeff:      0.116D-02-0.887D-02-0.257D-01-0.125D-01 0.749D-01 0.216D+00
 Coeff:      0.755D+00
 Gap=     0.349 Goal=   None    Shift=    0.000
 DSYEVD-2 returned Info=       39616 IAlg= 4 N=   228 NDim=   228 NE2=    28255454 trying  DSYEV.
 RMSDP=9.04D-09 MaxDP=5.96D-07 DE=-4.77D-11 OVMax= 4.40D-07

 SCF Done:  E(RM062X) =  -323.738370402     A.U. after   14 cycles
            NFock= 14  Conv=0.90D-08     -V/T= 2.0050
 KE= 3.221129733119D+02 PE=-1.256339234804D+03 EE= 3.613689498154D+02
 Leave Link  502 at Tue Feb 13 18:32:41 2024, MaxMem=  6442450944 cpu:             211.6 elap:              13.5
 (Enter /usr/local/g16_bin/l601.exe)
 Copying SCF densities to generalized density rwf, IOpCl= 0 IROHF=0.

 **********************************************************************

            Population analysis using the SCF Density.

 **********************************************************************

 Orbital symmetries:
       Occupied  (A) (A) (A) (A) (A) (A) (A) (A) (A) (A) (A) (A)
                 (A) (A) (A) (A) (A) (A) (A) (A) (A) (A) (A) (A)
       Virtual   (A) (A) (A) (A) (A) (A) (A) (A) (A) (A) (A) (A)
                 (A) (A) (A) (A) (A) (A) (A) (A) (A) (A) (A) (A)
                 (A) (A) (A) (A) (A) (A) (A) (A) (A) (A) (A) (A)
                 (A) (A) (A) (A) (A) (A) (A) (A) (A) (A) (A) (A)
                 (A) (A) (A) (A) (A) (A) (A) (A) (A) (A) (A) (A)
                 (A) (A) (A) (A) (A) (A) (A) (A) (A) (A) (A) (A)
                 (A) (A) (A) (A) (A) (A) (A) (A) (A) (A) (A) (A)
                 (A) (A) (A) (A) (A) (A) (A) (A) (A) (A) (A) (A)
                 (A) (A) (A) (A) (A) (A) (A) (A) (A) (A) (A) (A)
                 (A) (A) (A) (A) (A) (A) (A) (A) (A) (A) (A) (A)
                 (A) (A) (A) (A) (A) (A) (A) (A) (A) (A) (A) (A)
                 (A) (A) (A) (A) (A) (A) (A) (A) (A) (A) (A) (A)
                 (A) (A) (A) (A) (A) (A) (A) (A) (A) (A) (A) (A)
                 (A) (A) (A) (A) (A) (A) (A) (A) (A) (A) (A) (A)
                 (A) (A) (A) (A) (A) (A) (A) (A) (A) (A) (A) (A)
                 (A) (A) (A) (A) (A) (A) (A) (A) (A) (A) (A) (A)
                 (A) (A) (A) (A) (A) (A) (A) (A) (A) (A) (A) (A)
 The electronic state is 1-A.
 Alpha  occ. eigenvalues --  -19.67859 -19.62273 -14.73102 -10.68182 -10.59034
 Alpha  occ. eigenvalues --  -10.54105  -1.23059  -1.13688  -1.00624  -0.85369
 Alpha  occ. eigenvalues --   -0.76822  -0.68136  -0.61090  -0.57801  -0.54394
 Alpha  occ. eigenvalues --   -0.52401  -0.50733  -0.48354  -0.48159  -0.45272
 Alpha  occ. eigenvalues --   -0.43358  -0.39958  -0.35794  -0.31479
 Alpha virt. eigenvalues --    0.03395   0.05890   0.06847   0.09892   0.11273
 Alpha virt. eigenvalues --    0.11917   0.15053   0.17147   0.17887   0.19335
 Alpha virt. eigenvalues --    0.21227   0.23720   0.25707   0.27321   0.28451
 Alpha virt. eigenvalues --    0.31115   0.32043   0.34236   0.35144   0.38260
 Alpha virt. eigenvalues --    0.38778   0.40799   0.42477   0.42974   0.44447
 Alpha virt. eigenvalues --    0.46957   0.47900   0.49092   0.49700   0.51281
 Alpha virt. eigenvalues --    0.53101   0.54400   0.55219   0.55876   0.57426
 Alpha virt. eigenvalues --    0.59176   0.61931   0.63433   0.65101   0.68573
 Alpha virt. eigenvalues --    0.70483   0.77370   0.79227   0.83246   0.85588
 Alpha virt. eigenvalues --    0.87562   0.89635   0.91763   0.96818   0.98913
 Alpha virt. eigenvalues --    1.02532   1.06617   1.09833   1.11289   1.12682
 Alpha virt. eigenvalues --    1.16072   1.18947   1.20784   1.32031   1.35659
 Alpha virt. eigenvalues --    1.37680   1.38326   1.42903   1.47110   1.48220
 Alpha virt. eigenvalues --    1.50781   1.51590   1.54549   1.58015   1.58930
 Alpha virt. eigenvalues --    1.60641   1.62204   1.64807   1.68062   1.71562
 Alpha virt. eigenvalues --    1.75631   1.77412   1.80884   1.82039   1.84657
 Alpha virt. eigenvalues --    1.87849   1.90310   1.96961   1.98444   1.99279
 Alpha virt. eigenvalues --    2.01198   2.03793   2.06507   2.06815   2.11598
 Alpha virt. eigenvalues --    2.14425   2.19206   2.21062   2.22080   2.26505
 Alpha virt. eigenvalues --    2.28434   2.31784   2.32460   2.34779   2.37324
 Alpha virt. eigenvalues --    2.39924   2.40803   2.43482   2.48314   2.53018
 Alpha virt. eigenvalues --    2.54905   2.56831   2.59063   2.63924   2.67578
 Alpha virt. eigenvalues --    2.71310   2.72316   2.73415   2.78655   2.79227
 Alpha virt. eigenvalues --    2.84654   2.85703   2.88978   2.94926   2.96181
 Alpha virt. eigenvalues --    2.99627   3.02015   3.05366   3.08074   3.11543
 Alpha virt. eigenvalues --    3.12168   3.13849   3.15408   3.21232   3.22760
 Alpha virt. eigenvalues --    3.24353   3.25320   3.29419   3.31693   3.36665
 Alpha virt. eigenvalues --    3.39589   3.40195   3.40916   3.46192   3.47384
 Alpha virt. eigenvalues --    3.52030   3.58123   3.62921   3.68393   3.75754
 Alpha virt. eigenvalues --    3.80191   3.85014   3.87725   3.91438   3.92552
 Alpha virt. eigenvalues --    4.00591   4.03287   4.08858   4.16765   4.26731
 Alpha virt. eigenvalues --    4.29308   4.32188   4.37227   4.43696   4.45948
 Alpha virt. eigenvalues --    4.51227   4.55190   4.67891   4.72799   4.77257
 Alpha virt. eigenvalues --    4.84836   4.88077   4.91254   5.09389   5.15326
 Alpha virt. eigenvalues --    5.16987   5.19325   5.21244   5.22965   5.28366
 Alpha virt. eigenvalues --    5.35066   5.39071   5.48662   5.51361   5.58510
 Alpha virt. eigenvalues --    5.71249   5.76839   5.86445   5.89258   6.13448
 Alpha virt. eigenvalues --    6.17599   6.31558   6.32738   6.43956   6.46684
 Alpha virt. eigenvalues --    6.61729   6.68430   6.73128   6.81822   6.89919
 Alpha virt. eigenvalues --    7.06247   7.09050   7.28032  22.42756  22.66083
 Alpha virt. eigenvalues --   23.24098  32.12512  43.93084  43.99736
          Condensed to atoms (all electrons):
               1          2          3          4          5          6
     1  O    7.966471  -0.087844   0.004408  -0.125723   0.002266   0.371980
     2  O   -0.087844   7.813173  -0.000334  -0.087855  -0.003200   0.677259
     3  N    0.004408  -0.000334   6.635399   0.237223  -0.071354  -0.033016
     4  C   -0.125723  -0.087855   0.237223   5.312180   0.324619   0.203251
     5  C    0.002266  -0.003200  -0.071354   0.324619   5.107500  -0.055888
     6  C    0.371980   0.677259  -0.033016   0.203251  -0.055888   4.520989
     7  H    0.003486   0.001804  -0.027501   0.412012  -0.063230  -0.022028
     8  H    0.004110   0.000303   0.014574  -0.062848   0.397727   0.002461
     9  H    0.000015  -0.000385  -0.001030  -0.052715   0.420027   0.009690
    10  H   -0.000286   0.001475  -0.004354  -0.014898   0.385841  -0.007099
    11  H   -0.000261  -0.000264   0.387421  -0.080431   0.007233   0.016891
    12  H    0.000329   0.006322   0.369480  -0.030627  -0.005458  -0.015870
    13  H    0.287719   0.005275  -0.000466   0.015763  -0.000344  -0.022968
               7          8          9         10         11         12
     1  O    0.003486   0.004110   0.000015  -0.000286  -0.000261   0.000329
     2  O    0.001804   0.000303  -0.000385   0.001475  -0.000264   0.006322
     3  N   -0.027501   0.014574  -0.001030  -0.004354   0.387421   0.369480
     4  C    0.412012  -0.062848  -0.052715  -0.014898  -0.080431  -0.030627
     5  C   -0.063230   0.397727   0.420027   0.385841   0.007233  -0.005458
     6  C   -0.022028   0.002461   0.009690  -0.007099   0.016891  -0.015870
     7  H    0.539745   0.000785  -0.006713   0.007851  -0.008972   0.008632
     8  H    0.000785   0.530231  -0.019610  -0.020800   0.000495   0.000545
     9  H   -0.006713  -0.019610   0.532011  -0.027275   0.002795  -0.001077
    10  H    0.007851  -0.020800  -0.027275   0.529224  -0.000924   0.004988
    11  H   -0.008972   0.000495   0.002795  -0.000924   0.486168  -0.036742
    12  H    0.008632   0.000545  -0.001077   0.004988  -0.036742   0.464386
    13  H   -0.000825  -0.000018   0.000076  -0.000241   0.000049  -0.000070
              13
     1  O    0.287719
     2  O    0.005275
     3  N   -0.000466
     4  C    0.015763
     5  C   -0.000344
     6  C   -0.022968
     7  H   -0.000825
     8  H   -0.000018
     9  H    0.000076
    10  H   -0.000241
    11  H    0.000049
    12  H   -0.000070
    13  H    0.371251
 Mulliken charges:
               1
     1  O   -0.426671
     2  O   -0.325729
     3  N   -0.510451
     4  C   -0.049950
     5  C   -0.445739
     6  C    0.354347
     7  H    0.154954
     8  H    0.152045
     9  H    0.144191
    10  H    0.146498
    11  H    0.226544
    12  H    0.235162
    13  H    0.344801
 Sum of Mulliken charges =  -0.00000
 Mulliken charges with hydrogens summed into heavy atoms:
               1
     1  O   -0.081870
     2  O   -0.325729
     3  N   -0.048745
     4  C    0.105004
     5  C   -0.003006
     6  C    0.354347
 Electronic spatial extent (au):  <R**2>=            580.5957
 Charge=             -0.0000 electrons
 Dipole moment (field-independent basis, Debye):
    X=             -1.0609    Y=              2.7203    Z=              0.1732  Tot=              2.9250
 Quadrupole moment (field-independent basis, Debye-Ang):
   XX=            -28.5334   YY=            -43.3565   ZZ=            -35.5433
   XY=              2.7348   XZ=             -0.6721   YZ=             -0.4482
 Traceless Quadrupole moment (field-independent basis, Debye-Ang):
   XX=              7.2777   YY=             -7.5455   ZZ=              0.2678
   XY=              2.7348   XZ=             -0.6721   YZ=             -0.4482
 Octapole moment (field-independent basis, Debye-Ang**2):
  XXX=             15.8480  YYY=              6.5896  ZZZ=              0.0628  XYY=             -0.3660
  XXY=              5.3356  XXZ=             -1.1147  XZZ=              0.2808  YZZ=             -0.7951
  YYZ=              2.8093  XYZ=              4.9657
 Hexadecapole moment (field-independent basis, Debye-Ang**3):
 XXXX=           -298.0864 YYYY=           -274.6117 ZZZZ=            -72.7785 XXXY=             34.9501
 XXXZ=              7.0574 YYYX=              4.4505 YYYZ=             -8.0198 ZZZX=              0.2154
 ZZZY=             -4.5511 XXYY=           -111.3574 XXZZ=            -78.3966 YYZZ=            -57.6931
 XXYZ=              0.3197 YYXZ=             -4.9953 ZZXY=              2.3807
 N-N= 2.491189412747D+02 E-N=-1.256339245059D+03  KE= 3.221129733119D+02
 No NMR shielding tensors so no spin-rotation constants.
 Leave Link  601 at Tue Feb 13 18:32:42 2024, MaxMem=  6442450944 cpu:               2.4 elap:               0.3
 (Enter /usr/local/g16_bin/l701.exe)
 ... and contract with generalized density number  0.
 Compute integral first derivatives.
   1 Symmetry operations used in ECPInt.
 ECPInt:  NShTT=    4465 NPrTT=   13356 LenC2=    4420 LenP2D=   10937.
 LDataN:  DoStor=T MaxTD1= 7 Len=  274
 Leave Link  701 at Tue Feb 13 18:32:42 2024, MaxMem=  6442450944 cpu:               2.3 elap:               0.3
 (Enter /usr/local/g16_bin/l702.exe)
 L702 exits ... SP integral derivatives will be done elsewhere.
 Leave Link  702 at Tue Feb 13 18:32:42 2024, MaxMem=  6442450944 cpu:               0.2 elap:               0.1
 (Enter /usr/local/g16_bin/l703.exe)
 Integral derivatives from FoFJK, PRISM(SPDF).
 Compute integral first derivatives, UseDBF=F ICtDFT=           0.
 Calling FoFJK, ICntrl=      2127 FMM=F ISym2X=0 I1Cent= 0 IOpClX= 0 NMat=1 NMatS=1 NMatT=0.
 FoFJK:  IHMeth= 1 ICntrl=    2127 DoSepK=F KAlg= 0 I1Cent=           0 FoldK=F
 IRaf=         0 NMat=       1 IRICut=       1 DoRegI=T DoRafI=F ISym2E= 0 IDoP0=0 IntGTp=1.
 FoFCou: FMM=F IPFlag=           0 FMFlag=      100000 FMFlg1=         800
         NFxFlg=           0 DoJE=F BraDBF=F KetDBF=F FulRan=T
         wScrn=  0.000000 ICntrl=      2127 IOpCl=  0 I1Cent=           0 NGrid=           0
         NMat0=    1 NMatS0=      1 NMatT0=    0 NMatD0=    1 NMtDS0=    0 NMtDT0=    0
 Symmetry not used in FoFCou.
 Leave Link  703 at Tue Feb 13 18:32:47 2024, MaxMem=  6442450944 cpu:              67.3 elap:               4.3
 (Enter /usr/local/g16_bin/l716.exe)
 Dipole        =-4.17372519D-01 1.07025772D+00 6.81414254D-02
 ***** Axes restored to original set *****
 -------------------------------------------------------------------
 Center     Atomic                   Forces (Hartrees/Bohr)
 Number     Number              X              Y              Z
 -------------------------------------------------------------------
      1        8           0.004306213    0.005209022   -0.002753530
      2        8          -0.019399845   -0.041458922    0.012242519
      3        7          -0.004493115    0.004453653    0.004754072
      4        6          -0.014459076    0.014763498   -0.013856992
      5        6           0.004906930   -0.021050193    0.000379093
      6        6           0.030492343    0.026367008   -0.007456706
      7        1           0.001841796   -0.000600474   -0.002579358
      8        1          -0.001600273    0.001363489   -0.001508909
      9        1           0.003926335    0.003096293    0.000659525
     10        1           0.000086814    0.002477673    0.003665874
     11        1           0.005721801   -0.000441809    0.000148915
     12        1           0.003781783    0.000088668    0.004881929
     13        1          -0.015111706    0.005732095    0.001423567
 -------------------------------------------------------------------
 Cartesian Forces:  Max     0.041458922 RMS     0.011901745
 Leave Link  716 at Tue Feb 13 18:32:47 2024, MaxMem=  6442450944 cpu:               0.3 elap:               0.1
 (Enter /usr/local/g16_bin/l103.exe)

 GradGradGradGradGradGradGradGradGradGradGradGradGradGradGradGradGradGrad
 Berny optimization.
 FormGI is forming the generalized inverse of G from B-inverse, IUseBI=4.
 Internal  Forces:  Max     0.047235580 RMS     0.008135934
 Search for a local minimum.
 Step number   1 out of a maximum of   64
 All quantities printed in internal units (Hartrees-Bohrs-Radians)
 RMS Force = .81359D-02 SwitMx=.10000D-02 MixMth= 1
 Mixed Optimization -- RFO/linear search
 Second derivative matrix not updated -- first step.
 ITU=  0
     Eigenvalues ---    0.00466   0.00583   0.00878   0.00972   0.02233
     Eigenvalues ---    0.04519   0.04902   0.05023   0.05495   0.05592
     Eigenvalues ---    0.06644   0.16000   0.16000   0.16000   0.16000
     Eigenvalues ---    0.16000   0.16000   0.17185   0.17853   0.24999
     Eigenvalues ---    0.25000   0.30113   0.30966   0.34108   0.34167
     Eigenvalues ---    0.34178   0.34238   0.36775   0.44358   0.44397
     Eigenvalues ---    0.51186   0.53136   0.94206
 RFO step:  Lambda=-1.01059679D-02 EMin= 4.66326464D-03
 Linear search not attempted -- first point.
 Iteration  1 RMS(Cart)=  0.06241532 RMS(Int)=  0.00209296
 Iteration  2 RMS(Cart)=  0.00273780 RMS(Int)=  0.00065206
 Iteration  3 RMS(Cart)=  0.00000401 RMS(Int)=  0.00065205
 Iteration  4 RMS(Cart)=  0.00000000 RMS(Int)=  0.00065205
 ITry= 1 IFail=0 DXMaxC= 2.05D-01 DCOld= 1.00D+10 DXMaxT= 3.00D-01 DXLimC= 3.00D+00 Rises=F
 Variable       Old X    -DE/DX   Delta X   Delta X   Delta X     New X
                                 (Linear)    (Quad)   (Total)
    R1        2.56827  -0.01501   0.00000  -0.02771  -0.02771   2.54056
    R2        1.85387  -0.01430   0.00000  -0.02740  -0.02740   1.82647
    R3        2.31053  -0.04724   0.00000  -0.04961  -0.04961   2.26092
    R4        2.76187  -0.00028   0.00000  -0.00073  -0.00073   2.76114
    R5        1.92683  -0.00542   0.00000  -0.01194  -0.01194   1.91489
    R6        1.92729  -0.00472   0.00000  -0.01039  -0.01039   1.91689
    R7        2.87739   0.00524   0.00000   0.01685   0.01685   2.89424
    R8        2.86077  -0.00111   0.00000  -0.00347  -0.00347   2.85730
    R9        2.06930  -0.00246   0.00000  -0.00697  -0.00697   2.06233
   R10        2.07031  -0.00215   0.00000  -0.00612  -0.00612   2.06419
   R11        2.07049  -0.00401   0.00000  -0.01141  -0.01141   2.05909
   R12        2.07149  -0.00307   0.00000  -0.00873  -0.00873   2.06275
    A1        1.95241  -0.01420   0.00000  -0.08349  -0.08349   1.86892
    A2        1.91099  -0.00158   0.00000  -0.00349  -0.00351   1.90748
    A3        1.91779  -0.00057   0.00000   0.00239   0.00237   1.92016
    A4        1.84595   0.00246   0.00000   0.02664   0.02659   1.87254
    A5        1.91516   0.01460   0.00000   0.10316   0.10321   2.01837
    A6        1.88661  -0.00216   0.00000   0.01031   0.00942   1.89603
    A7        1.89697  -0.00460   0.00000  -0.02613  -0.02547   1.87149
    A8        1.93411  -0.00678   0.00000  -0.02333  -0.02597   1.90813
    A9        1.93801  -0.00309   0.00000  -0.03297  -0.03375   1.90426
   A10        1.89180   0.00189   0.00000  -0.03169  -0.03289   1.85891
   A11        1.93705   0.00393   0.00000   0.02994   0.03016   1.96721
   A12        1.94027  -0.00410   0.00000  -0.02746  -0.02780   1.91246
   A13        1.94803  -0.00416   0.00000  -0.02798  -0.02832   1.91971
   A14        1.87519   0.00099   0.00000   0.01248   0.01269   1.88788
   A15        1.87188   0.00094   0.00000   0.01178   0.01199   1.88387
   A16        1.88828   0.00274   0.00000   0.00349   0.00259   1.89087
   A17        2.15068  -0.00246   0.00000  -0.00919  -0.01045   2.14023
   A18        1.92647   0.00250   0.00000   0.00987   0.00860   1.93507
   A19        2.20599  -0.00002   0.00000   0.00018  -0.00110   2.20489
    D1       -0.00449   0.00094   0.00000   0.04603   0.04580   0.04131
    D2       -3.13618  -0.00083   0.00000  -0.04266  -0.04243   3.10457
    D3        1.04921   0.00115   0.00000  -0.03740  -0.03829   1.01092
    D4       -3.12291   0.00026   0.00000   0.00200   0.00300  -3.11991
    D5       -1.07307  -0.00119   0.00000  -0.04417  -0.04423  -1.11731
    D6       -0.97104  -0.00059   0.00000  -0.06886  -0.06978  -1.04083
    D7        1.14002  -0.00148   0.00000  -0.02946  -0.02849   1.11153
    D8       -3.09333  -0.00293   0.00000  -0.07563  -0.07572   3.11414
    D9       -3.08882   0.00001   0.00000   0.00666   0.00683  -3.08199
   D10       -1.00276   0.00115   0.00000   0.02408   0.02396  -0.97880
   D11        1.10732  -0.00105   0.00000  -0.00977  -0.00928   1.09804
   D12        1.11222  -0.00237   0.00000  -0.05727  -0.05700   1.05522
   D13       -3.08490  -0.00123   0.00000  -0.03985  -0.03988  -3.12478
   D14       -0.97482  -0.00343   0.00000  -0.07369  -0.07312  -1.04794
   D15       -0.99133   0.00185   0.00000   0.02043   0.01997  -0.97136
   D16        1.09474   0.00299   0.00000   0.03785   0.03710   1.13183
   D17       -3.07837   0.00079   0.00000   0.00400   0.00386  -3.07451
   D18        3.12646  -0.00612   0.00000  -0.07119  -0.07070   3.05576
   D19       -0.00485  -0.00795   0.00000  -0.16329  -0.16288  -0.16773
   D20       -1.05749   0.00635   0.00000   0.04786   0.04720  -1.01029
   D21        2.09439   0.00452   0.00000  -0.04424  -0.04498   2.04941
   D22        1.07329  -0.00052   0.00000  -0.02864  -0.02834   1.04495
   D23       -2.05801  -0.00234   0.00000  -0.12074  -0.12052  -2.17853
         Item               Value     Threshold  Converged?
 Maximum Force            0.047236     0.000450     NO 
 RMS     Force            0.008136     0.000300     NO 
 Maximum Displacement     0.205113     0.001800     NO 
 RMS     Displacement     0.062384     0.001200     NO 
 Predicted change in Energy=-5.590835D-03
 Lowest energy point so far.  Saving SCF results.
 GradGradGradGradGradGradGradGradGradGradGradGradGradGradGradGradGradGrad

 Leave Link  103 at Tue Feb 13 18:32:47 2024, MaxMem=  6442450944 cpu:               1.3 elap:               0.2
 (Enter /usr/local/g16_bin/l202.exe)
                          Input orientation:                          
 ---------------------------------------------------------------------
 Center     Atomic      Atomic             Coordinates (Angstroms)
 Number     Number       Type             X           Y           Z
 ---------------------------------------------------------------------
      1          8           0        1.412379   -1.058902    0.259889
      2          8           0        1.236097    1.050538   -0.441880
      3          7           0       -1.406762    1.188835    0.217221
      4          6           0       -0.735381   -0.100596    0.363913
      5          6           0       -1.307412   -1.245268   -0.477637
      6          6           0        0.729914    0.077609    0.036270
      7          1           0       -0.786188   -0.373254    1.419421
      8          1           0       -0.809210   -2.198529   -0.287243
      9          1           0       -2.367635   -1.366033   -0.257139
     10          1           0       -1.201364   -1.016743   -1.539728
     11          1           0       -2.386415    1.085085    0.454546
     12          1           0       -1.361419    1.496041   -0.748454
     13          1           0        2.329367   -0.894774    0.002270
 ---------------------------------------------------------------------
                    Distance matrix (angstroms):
                    1          2          3          4          5
     1  O    0.000000
     2  O    2.230088   0.000000
     3  N    3.605786   2.727314   0.000000
     4  C    2.354155   2.420979   1.461131   0.000000
     5  C    2.824171   3.426579   2.533289   1.531567   0.000000
     6  C    1.344404   1.196428   2.415150   1.512017   2.482902
     7  H    2.578435   3.095362   2.066523   1.091339   2.151955
     8  H    2.556083   3.842347   3.476462   2.197903   1.092320
     9  H    3.827552   4.342906   2.770495   2.156685   1.089622
    10  H    3.173649   3.379369   2.827301   2.163403   1.091562
    11  H    4.366395   3.731938   1.013315   2.034691   2.731987
    12  H    3.903645   2.653215   1.014377   2.044147   2.755183
    13  H    0.966525   2.275247   4.283256   3.186563   3.685013
                    6          7          8          9         10
     6  C    0.000000
     7  H    2.101179   0.000000
     8  H    2.766653   2.498972   0.000000
     9  H    3.430014   2.509469   1.767101   0.000000
    10  H    2.722353   3.056634   1.766104   1.768397   0.000000
    11  H    3.301737   2.370330   3.717519   2.552416   3.130360
    12  H    2.646018   2.919732   3.763974   3.073326   2.639283
    13  H    1.872147   3.462222   3.410903   4.727706   3.854698
                   11         12         13
    11  H    0.000000
    12  H    1.633006   0.000000
    13  H    5.134490   4.461108   0.000000
 Stoichiometry    C3H7NO2
 Framework group  C1[X(C3H7NO2)]
 Deg. of freedom    33
 Full point group                 C1      NOp   1
 RotChk:  IX=0 Diff= 5.39D-02
 Largest Abelian subgroup         C1      NOp   1
 Largest concise Abelian subgroup C1      NOp   1
                         Standard orientation:                         
 ---------------------------------------------------------------------
 Center     Atomic      Atomic             Coordinates (Angstroms)
 Number     Number       Type             X           Y           Z
 ---------------------------------------------------------------------
      1          8           0        1.569637    0.849196   -0.298832
      2          8           0        1.185138   -1.221745    0.433737
      3          7           0       -1.457561   -1.108644   -0.230788
      4          6           0       -0.662043    0.105926   -0.394728
      5          6           0       -1.119513    1.313998    0.428060
      6          6           0        0.778070   -0.210962   -0.060281
      7          1           0       -0.684249    0.366308   -1.454316
      8          1           0       -0.529434    2.210496    0.224929
      9          1           0       -2.162344    1.535399    0.202759
     10          1           0       -1.037990    1.092179    1.493732
     11          1           0       -2.421871   -0.912375   -0.472430
     12          1           0       -1.444077   -1.404220    0.739477
     13          1           0        2.465603    0.599336   -0.036179
 ---------------------------------------------------------------------
 Rotational constants (GHZ):           5.0423700           3.2811094           2.2437174
 Leave Link  202 at Tue Feb 13 18:32:47 2024, MaxMem=  6442450944 cpu:               0.2 elap:               0.1
 (Enter /usr/local/g16_bin/l301.exe)
 Standard basis: def2TZVP (5D, 7F)
 Ernie: Thresh=  0.10000D-02 Tol=  0.10000D-05 Strict=F.
 There are   258 symmetry adapted cartesian basis functions of A   symmetry.
 There are   228 symmetry adapted basis functions of A   symmetry.
   228 basis functions,   362 primitive gaussians,   258 cartesian basis functions
    24 alpha electrons       24 beta electrons
       nuclear repulsion energy       250.5435607444 Hartrees.
 IExCor= 4336 DFT=T Ex+Corr=M062X ExCW=0 ScaHFX=  0.540000
 ScaDFX=  1.000000  1.000000  1.000000  1.000000 ScalE2=  1.000000  1.000000
 IRadAn=      5 IRanWt=     -1 IRanGd=            0 ICorTp=0 IEmpDi=  4
 NAtoms=   13 NActive=   13 NUniq=   13 SFac= 1.00D+00 NAtFMM=   60 NAOKFM=F Big=F
 Integral buffers will be    131072 words long.
 Raffenetti 2 integral format.
 Two-electron integral symmetry is turned on.
 Leave Link  301 at Tue Feb 13 18:32:47 2024, MaxMem=  6442450944 cpu:               0.5 elap:               0.1
 (Enter /usr/local/g16_bin/l302.exe)
 NPDir=0 NMtPBC=     1 NCelOv=     1 NCel=       1 NClECP=     1 NCelD=      1
         NCelK=      1 NCelE2=     1 NClLst=     1 CellRange=     0.0.
 One-electron integrals computed using PRISM.
 One-electron integral symmetry used in STVInt
   1 Symmetry operations used in ECPInt.
 ECPInt:  NShTT=    4465 NPrTT=   13356 LenC2=    4421 LenP2D=   10950.
 LDataN:  DoStor=T MaxTD1= 6 Len=  172
 GSVD:  received Info=                   1 from GESDD.
 NBasis=   228 RedAO= T EigKep=  2.02D-04  NBF=   228
 NBsUse=   228 1.00D-06 EigRej= -1.00D+00 NBFU=   228
 Precomputing XC quadrature grid using
 IXCGrd= 4 IRadAn=           5 IRanWt=          -1 IRanGd=           0 AccXCQ= 0.00D+00.
 Generated NRdTot=       0 NPtTot=           0 NUsed=           0 NTot=          32
 NSgBfM=   257   257   257   257   257 MxSgAt=    13 MxSgA2=    13.
 Leave Link  302 at Tue Feb 13 18:32:48 2024, MaxMem=  6442450944 cpu:               3.5 elap:               0.3
 (Enter /usr/local/g16_bin/l303.exe)
 DipDrv:  MaxL=1.
 Leave Link  303 at Tue Feb 13 18:32:48 2024, MaxMem=  6442450944 cpu:               0.2 elap:               0.1
 (Enter /usr/local/g16_bin/l401.exe)
 Initial guess from the checkpoint file:  "/scratch/16209.qtcovimaster/Gau-163330.chk"
 B after Tr=     0.000000   -0.000000    0.000000
         Rot=    0.999847    0.007569   -0.004503    0.015130 Ang=   2.01 deg.
 Guess basis will be translated and rotated to current coordinates.
 JPrj=2 DoOrth=T DoCkMO=T.
 Generating alternative initial guess.
 ExpMin= 9.52D-02 ExpMax= 2.70D+04 ExpMxC= 9.22D+02 IAcc=3 IRadAn=         5 AccDes= 0.00D+00
 Harris functional with IExCor= 1009 and IRadAn=       5 diagonalized for initial guess.
 HarFok:  IExCor= 1009 AccDes= 0.00D+00 IRadAn=         5 IDoV= 1 UseB2=F ITyADJ=14
 ICtDFT=  3500011 ScaDFX=  1.000000  1.000000  1.000000  1.000000
 FoFCou: FMM=F IPFlag=           0 FMFlag=      100000 FMFlg1=           0
         NFxFlg=           0 DoJE=T BraDBF=F KetDBF=T FulRan=T
         wScrn=  0.000000 ICntrl=       500 IOpCl=  0 I1Cent=   200000004 NGrid=           0
         NMat0=    1 NMatS0=      1 NMatT0=    0 NMatD0=    1 NMtDS0=    0 NMtDT0=    0
 Petite list used in FoFCou.
 Harris En= -323.620695400503    
 Leave Link  401 at Tue Feb 13 18:32:49 2024, MaxMem=  6442450944 cpu:              11.6 elap:               0.9
 (Enter /usr/local/g16_bin/l502.exe)
 Integral symmetry usage will be decided dynamically.
 Closed shell SCF:
 Using DIIS extrapolation, IDIIS=  1040.
 NGot=  6442450944 LenX=  6442310950 LenY=  6442243945
 Requested convergence on RMS density matrix=1.00D-08 within 128 cycles.
 Requested convergence on MAX density matrix=1.00D-06.
 Requested convergence on             energy=1.00D-06.
 No special actions if energy rises.
 Fock matrices will be formed incrementally for  20 cycles.
 Integral accuracy reduced to 1.0D-05 until final iterations.

 Cycle   1  Pass 0  IDiag  1:
 FoFJK:  IHMeth= 1 ICntrl=       0 DoSepK=F KAlg= 0 I1Cent=           0 FoldK=F
 IRaf= 980000000 NMat=       1 IRICut=       1 DoRegI=T DoRafI=F ISym2E= 0 IDoP0=0 IntGTp=1.
 FoFCou: FMM=F IPFlag=           0 FMFlag=      100000 FMFlg1=           0
         NFxFlg=           0 DoJE=F BraDBF=F KetDBF=F FulRan=T
         wScrn=  0.000000 ICntrl=         0 IOpCl=  0 I1Cent=           0 NGrid=           0
         NMat0=    1 NMatS0=      1 NMatT0=    0 NMatD0=    1 NMtDS0=    0 NMtDT0=    0
 Symmetry not used in FoFCou.
 E= -323.736787244100    
 DIIS: error= 2.14D-03 at cycle   1 NSaved=   1.
 NSaved= 1 IEnMin= 1 EnMin= -323.736787244100     IErMin= 1 ErrMin= 2.14D-03
 ErrMax= 2.14D-03  0.00D+00 EMaxC= 1.00D-01 BMatC= 5.39D-03 BMatP= 5.39D-03
 IDIUse=3 WtCom= 9.79D-01 WtEn= 2.14D-02
 Coeff-Com:  0.100D+01
 Coeff-En:   0.100D+01
 Coeff:      0.100D+01
 Gap=     0.771 Goal=   None    Shift=    0.000
 DSYEVD-2 returned Info=       39616 IAlg= 4 N=   228 NDim=   228 NE2=    28255454 trying  DSYEV.
 GapD=    0.771 DampG=2.000 DampE=1.000 DampFc=2.0000 IDamp=-1.
 RMSDP=5.99D-04 MaxDP=3.63D-02              OVMax= 2.24D-02

 Cycle   2  Pass 0  IDiag  1:
 RMSU=  5.94D-04    CP:  9.93D-01
 E= -323.742912663173     Delta-E=       -0.006125419073 Rises=F Damp=F
 DIIS: error= 5.30D-04 at cycle   2 NSaved=   2.
 NSaved= 2 IEnMin= 2 EnMin= -323.742912663173     IErMin= 2 ErrMin= 5.30D-04
 ErrMax= 5.30D-04  0.00D+00 EMaxC= 1.00D-01 BMatC= 2.40D-04 BMatP= 5.39D-03
 IDIUse=3 WtCom= 9.95D-01 WtEn= 5.30D-03
 Coeff-Com: -0.470D-01 0.105D+01
 Coeff-En:   0.000D+00 0.100D+01
 Coeff:     -0.468D-01 0.105D+01
 Gap=     0.366 Goal=   None    Shift=    0.000
 DSYEVD-2 returned Info=       46028 IAlg= 4 N=   228 NDim=   228 NE2=    28255454 trying  DSYEV.
 RMSDP=1.07D-04 MaxDP=2.59D-03 DE=-6.13D-03 OVMax= 5.80D-03

 Cycle   3  Pass 0  IDiag  1:
 RMSU=  9.12D-05    CP:  9.93D-01  1.09D+00
 E= -323.743201519340     Delta-E=       -0.000288856167 Rises=F Damp=F
 DIIS: error= 3.55D-04 at cycle   3 NSaved=   3.
 NSaved= 3 IEnMin= 3 EnMin= -323.743201519340     IErMin= 3 ErrMin= 3.55D-04
 ErrMax= 3.55D-04  0.00D+00 EMaxC= 1.00D-01 BMatC= 9.78D-05 BMatP= 2.40D-04
 IDIUse=3 WtCom= 9.96D-01 WtEn= 3.55D-03
 Coeff-Com: -0.588D-01 0.403D+00 0.656D+00
 Coeff-En:   0.000D+00 0.000D+00 0.100D+01
 Coeff:     -0.586D-01 0.402D+00 0.657D+00
 Gap=     0.364 Goal=   None    Shift=    0.000
 DSYEVD-2 returned Info=       46028 IAlg= 4 N=   228 NDim=   228 NE2=    28255454 trying  DSYEV.
 RMSDP=4.44D-05 MaxDP=1.83D-03 DE=-2.89D-04 OVMax= 2.17D-03

 Cycle   4  Pass 0  IDiag  1:
 RMSU=  2.86D-05    CP:  9.92D-01  1.14D+00  7.61D-01
 E= -323.743275670570     Delta-E=       -0.000074151230 Rises=F Damp=F
 DIIS: error= 1.05D-04 at cycle   4 NSaved=   4.
 NSaved= 4 IEnMin= 4 EnMin= -323.743275670570     IErMin= 4 ErrMin= 1.05D-04
 ErrMax= 1.05D-04  0.00D+00 EMaxC= 1.00D-01 BMatC= 6.84D-06 BMatP= 9.78D-05
 IDIUse=3 WtCom= 9.99D-01 WtEn= 1.05D-03
 Coeff-Com: -0.131D-01 0.308D-01 0.205D+00 0.777D+00
 Coeff-En:   0.000D+00 0.000D+00 0.000D+00 0.100D+01
 Coeff:     -0.131D-01 0.308D-01 0.205D+00 0.778D+00
 Gap=     0.364 Goal=   None    Shift=    0.000
 DSYEVD-2 returned Info=       46028 IAlg= 4 N=   228 NDim=   228 NE2=    28255454 trying  DSYEV.
 RMSDP=1.39D-05 MaxDP=4.41D-04 DE=-7.42D-05 OVMax= 8.39D-04

 Cycle   5  Pass 0  IDiag  1:
 RMSU=  1.02D-05    CP:  9.92D-01  1.14D+00  8.64D-01  9.96D-01
 E= -323.743280405537     Delta-E=       -0.000004734967 Rises=F Damp=F
 DIIS: error= 7.21D-05 at cycle   5 NSaved=   5.
 NSaved= 5 IEnMin= 5 EnMin= -323.743280405537     IErMin= 5 ErrMin= 7.21D-05
 ErrMax= 7.21D-05  0.00D+00 EMaxC= 1.00D-01 BMatC= 2.57D-06 BMatP= 6.84D-06
 IDIUse=1 WtCom= 1.00D+00 WtEn= 0.00D+00
 Coeff-Com:  0.136D-02-0.416D-01 0.164D-01 0.439D+00 0.585D+00
 Coeff:      0.136D-02-0.416D-01 0.164D-01 0.439D+00 0.585D+00
 Gap=     0.364 Goal=   None    Shift=    0.000
 DSYEVD-2 returned Info=       46028 IAlg= 4 N=   228 NDim=   228 NE2=    28255454 trying  DSYEV.
 RMSDP=5.06D-06 MaxDP=2.00D-04 DE=-4.73D-06 OVMax= 4.55D-04

 Initial convergence to 1.0D-05 achieved.  Increase integral accuracy.
 Cycle   6  Pass 1  IDiag  1:
 E= -323.743274925731     Delta-E=        0.000005479807 Rises=F Damp=F
 DIIS: error= 1.68D-05 at cycle   1 NSaved=   1.
 NSaved= 1 IEnMin= 1 EnMin= -323.743274925731     IErMin= 1 ErrMin= 1.68D-05
 ErrMax= 1.68D-05  0.00D+00 EMaxC= 1.00D-01 BMatC= 2.50D-07 BMatP= 2.50D-07
 IDIUse=1 WtCom= 1.00D+00 WtEn= 0.00D+00
 Coeff-Com:  0.100D+01
 Coeff:      0.100D+01
 Gap=     0.364 Goal=   None    Shift=    0.000
 DSYEVD-2 returned Info=       46028 IAlg= 4 N=   228 NDim=   228 NE2=    28255454 trying  DSYEV.
 RMSDP=5.06D-06 MaxDP=2.00D-04 DE= 5.48D-06 OVMax= 1.88D-04

 Cycle   7  Pass 1  IDiag  1:
 RMSU=  5.69D-06    CP:  1.00D+00
 E= -323.743274984264     Delta-E=       -0.000000058533 Rises=F Damp=F
 DIIS: error= 1.97D-05 at cycle   2 NSaved=   2.
 NSaved= 2 IEnMin= 2 EnMin= -323.743274984264     IErMin= 1 ErrMin= 1.68D-05
 ErrMax= 1.97D-05  0.00D+00 EMaxC= 1.00D-01 BMatC= 2.10D-07 BMatP= 2.50D-07
 IDIUse=1 WtCom= 1.00D+00 WtEn= 0.00D+00
 Coeff-Com:  0.473D+00 0.527D+00
 Coeff:      0.473D+00 0.527D+00
 Gap=     0.364 Goal=   None    Shift=    0.000
 DSYEVD-2 returned Info=       46028 IAlg= 4 N=   228 NDim=   228 NE2=    28255454 trying  DSYEV.
 RMSDP=1.63D-06 MaxDP=5.40D-05 DE=-5.85D-08 OVMax= 1.70D-04

 Cycle   8  Pass 1  IDiag  1:
 RMSU=  1.52D-06    CP:  1.00D+00  8.96D-01
 E= -323.743275113013     Delta-E=       -0.000000128749 Rises=F Damp=F
 DIIS: error= 6.20D-06 at cycle   3 NSaved=   3.
 NSaved= 3 IEnMin= 3 EnMin= -323.743275113013     IErMin= 3 ErrMin= 6.20D-06
 ErrMax= 6.20D-06  0.00D+00 EMaxC= 1.00D-01 BMatC= 2.68D-08 BMatP= 2.10D-07
 IDIUse=1 WtCom= 1.00D+00 WtEn= 0.00D+00
 Coeff-Com: -0.113D-01 0.252D+00 0.759D+00
 Coeff:     -0.113D-01 0.252D+00 0.759D+00
 Gap=     0.364 Goal=   None    Shift=    0.000
 DSYEVD-2 returned Info=       46028 IAlg= 4 N=   228 NDim=   228 NE2=    28255454 trying  DSYEV.
 RMSDP=7.47D-07 MaxDP=3.10D-05 DE=-1.29D-07 OVMax= 4.75D-05

 Cycle   9  Pass 1  IDiag  1:
 RMSU=  4.91D-07    CP:  1.00D+00  9.81D-01  8.13D-01
 E= -323.743275132607     Delta-E=       -0.000000019594 Rises=F Damp=F
 DIIS: error= 1.42D-06 at cycle   4 NSaved=   4.
 NSaved= 4 IEnMin= 4 EnMin= -323.743275132607     IErMin= 4 ErrMin= 1.42D-06
 ErrMax= 1.42D-06  0.00D+00 EMaxC= 1.00D-01 BMatC= 1.45D-09 BMatP= 2.68D-08
 IDIUse=1 WtCom= 1.00D+00 WtEn= 0.00D+00
 Coeff-Com: -0.268D-01 0.858D-01 0.325D+00 0.616D+00
 Coeff:     -0.268D-01 0.858D-01 0.325D+00 0.616D+00
 Gap=     0.364 Goal=   None    Shift=    0.000
 DSYEVD-2 returned Info=       46028 IAlg= 4 N=   228 NDim=   228 NE2=    28255454 trying  DSYEV.
 RMSDP=1.48D-07 MaxDP=5.03D-06 DE=-1.96D-08 OVMax= 1.05D-05

 Cycle  10  Pass 1  IDiag  1:
 RMSU=  1.31D-07    CP:  1.00D+00  9.89D-01  8.48D-01  9.53D-01
 E= -323.743275133940     Delta-E=       -0.000000001333 Rises=F Damp=F
 DIIS: error= 4.34D-07 at cycle   5 NSaved=   5.
 NSaved= 5 IEnMin= 5 EnMin= -323.743275133940     IErMin= 5 ErrMin= 4.34D-07
 ErrMax= 4.34D-07  0.00D+00 EMaxC= 1.00D-01 BMatC= 1.53D-10 BMatP= 1.45D-09
 IDIUse=1 WtCom= 1.00D+00 WtEn= 0.00D+00
 Coeff-Com: -0.567D-02-0.208D-01-0.491D-01 0.170D+00 0.906D+00
 Coeff:     -0.567D-02-0.208D-01-0.491D-01 0.170D+00 0.906D+00
 Gap=     0.364 Goal=   None    Shift=    0.000
 DSYEVD-2 returned Info=       46028 IAlg= 4 N=   228 NDim=   228 NE2=    28255454 trying  DSYEV.
 RMSDP=9.83D-08 MaxDP=2.78D-06 DE=-1.33D-09 OVMax= 8.55D-06

 Cycle  11  Pass 1  IDiag  1:
 RMSU=  5.46D-08    CP:  1.00D+00  9.96D-01  8.66D-01  1.07D+00  1.17D+00
 E= -323.743275134194     Delta-E=       -0.000000000255 Rises=F Damp=F
 DIIS: error= 1.88D-07 at cycle   6 NSaved=   6.
 NSaved= 6 IEnMin= 6 EnMin= -323.743275134194     IErMin= 6 ErrMin= 1.88D-07
 ErrMax= 1.88D-07  0.00D+00 EMaxC= 1.00D-01 BMatC= 2.40D-11 BMatP= 1.53D-10
 IDIUse=1 WtCom= 1.00D+00 WtEn= 0.00D+00
 Coeff-Com:  0.211D-02-0.202D-01-0.680D-01-0.350D-01 0.327D+00 0.794D+00
 Coeff:      0.211D-02-0.202D-01-0.680D-01-0.350D-01 0.327D+00 0.794D+00
 Gap=     0.364 Goal=   None    Shift=    0.000
 DSYEVD-2 returned Info=       46028 IAlg= 4 N=   228 NDim=   228 NE2=    28255454 trying  DSYEV.
 RMSDP=3.65D-08 MaxDP=1.16D-06 DE=-2.55D-10 OVMax= 3.83D-06

 Cycle  12  Pass 1  IDiag  1:
 RMSU=  2.02D-08    CP:  1.00D+00  9.97D-01  8.65D-01  1.13D+00  1.26D+00
                    CP:  9.85D-01
 E= -323.743275134235     Delta-E=       -0.000000000041 Rises=F Damp=F
 DIIS: error= 8.29D-08 at cycle   7 NSaved=   7.
 NSaved= 7 IEnMin= 7 EnMin= -323.743275134235     IErMin= 7 ErrMin= 8.29D-08
 ErrMax= 8.29D-08  0.00D+00 EMaxC= 1.00D-01 BMatC= 1.96D-12 BMatP= 2.40D-11
 IDIUse=1 WtCom= 1.00D+00 WtEn= 0.00D+00
 Coeff-Com:  0.110D-02-0.467D-02-0.175D-01-0.241D-01 0.297D-01 0.246D+00
 Coeff-Com:  0.769D+00
 Coeff:      0.110D-02-0.467D-02-0.175D-01-0.241D-01 0.297D-01 0.246D+00
 Coeff:      0.769D+00
 Gap=     0.364 Goal=   None    Shift=    0.000
 DSYEVD-2 returned Info=       39616 IAlg= 4 N=   228 NDim=   228 NE2=    28255454 trying  DSYEV.
 RMSDP=8.18D-09 MaxDP=2.06D-07 DE=-4.08D-11 OVMax= 1.29D-06

 SCF Done:  E(RM062X) =  -323.743275134     A.U. after   12 cycles
            NFock= 12  Conv=0.82D-08     -V/T= 2.0044
 KE= 3.223205939513D+02 PE=-1.259304855253D+03 EE= 3.626974254232D+02
 Leave Link  502 at Tue Feb 13 18:33:01 2024, MaxMem=  6442450944 cpu:             186.6 elap:              11.9
 (Enter /usr/local/g16_bin/l701.exe)
 ... and contract with generalized density number  0.
 Compute integral first derivatives.
   1 Symmetry operations used in ECPInt.
 ECPInt:  NShTT=    4465 NPrTT=   13356 LenC2=    4421 LenP2D=   10950.
 LDataN:  DoStor=T MaxTD1= 7 Len=  274
 Leave Link  701 at Tue Feb 13 18:33:01 2024, MaxMem=  6442450944 cpu:               2.5 elap:               0.3
 (Enter /usr/local/g16_bin/l702.exe)
 L702 exits ... SP integral derivatives will be done elsewhere.
 Leave Link  702 at Tue Feb 13 18:33:01 2024, MaxMem=  6442450944 cpu:               0.2 elap:               0.1
 (Enter /usr/local/g16_bin/l703.exe)
 Integral derivatives from FoFJK, PRISM(SPDF).
 Compute integral first derivatives, UseDBF=F ICtDFT=           0.
 Calling FoFJK, ICntrl=      2127 FMM=F ISym2X=0 I1Cent= 0 IOpClX= 0 NMat=1 NMatS=1 NMatT=0.
 FoFJK:  IHMeth= 1 ICntrl=    2127 DoSepK=F KAlg= 0 I1Cent=           0 FoldK=F
 IRaf=         0 NMat=       1 IRICut=       1 DoRegI=T DoRafI=F ISym2E= 0 IDoP0=0 IntGTp=1.
 FoFCou: FMM=F IPFlag=           0 FMFlag=      100000 FMFlg1=         800
         NFxFlg=           0 DoJE=F BraDBF=F KetDBF=F FulRan=T
         wScrn=  0.000000 ICntrl=      2127 IOpCl=  0 I1Cent=           0 NGrid=           0
         NMat0=    1 NMatS0=      1 NMatT0=    0 NMatD0=    1 NMtDS0=    0 NMtDT0=    0
 Symmetry not used in FoFCou.
 Leave Link  703 at Tue Feb 13 18:33:05 2024, MaxMem=  6442450944 cpu:              61.2 elap:               3.9
 (Enter /usr/local/g16_bin/l716.exe)
 Dipole        =-4.07277041D-01 9.62607980D-01 7.57850717D-02
 ***** Axes restored to original set *****
 -------------------------------------------------------------------
 Center     Atomic                   Forces (Hartrees/Bohr)
 Number     Number              X              Y              Z
 -------------------------------------------------------------------
      1        8           0.002527400   -0.001591511    0.003813122
      2        8          -0.000483222    0.000472732    0.001344561
      3        7           0.000255776   -0.007466780   -0.000205674
      4        6          -0.002749826    0.007736562    0.002341409
      5        6          -0.000584746   -0.002481270   -0.001452826
      6        6          -0.001685160   -0.000662521   -0.007423450
      7        1           0.000242553   -0.001592468    0.001105566
      8        1           0.000244988    0.002903921    0.001083409
      9        1          -0.000547314    0.000624551   -0.000086328
     10        1          -0.000661316    0.000533862   -0.000508940
     11        1           0.000201641    0.000134296   -0.000114770
     12        1           0.001923323    0.001325049    0.000403777
     13        1           0.001315903    0.000063578   -0.000299856
 -------------------------------------------------------------------
 Cartesian Forces:  Max     0.007736562 RMS     0.002502087
 Leave Link  716 at Tue Feb 13 18:33:05 2024, MaxMem=  6442450944 cpu:               0.3 elap:               0.1
 (Enter /usr/local/g16_bin/l103.exe)

 GradGradGradGradGradGradGradGradGradGradGradGradGradGradGradGradGradGrad
 Berny optimization.
 Using GEDIIS/GDIIS optimizer.
 FormGI is forming the generalized inverse of G from B-inverse, IUseBI=4.
 GSVD:  received Info=                   1 from GESDD.
 Internal  Forces:  Max     0.006403130 RMS     0.001527771
 Search for a local minimum.
 Step number   2 out of a maximum of   64
 All quantities printed in internal units (Hartrees-Bohrs-Radians)
 RMS Force = .15278D-02 SwitMx=.10000D-02 MixMth= 1
 Mixed Optimization -- RFO/linear search
 Update second derivatives using D2CorX and points    1    2
 DE= -4.90D-03 DEPred=-5.59D-03 R= 8.77D-01
 TightC=F SS=  1.41D+00  RLast= 3.35D-01 DXNew= 5.0454D-01 1.0054D+00
 Trust test= 8.77D-01 RLast= 3.35D-01 DXMaxT set to 5.05D-01
 ITU=  1  0
 Use linear search instead of GDIIS.
 DSYEVD-2 returned Info=          67 IAlg= 4 N=    33 NDim=    33 NE2=   195179051 trying  DSYEV.
     Eigenvalues ---    0.00467   0.00562   0.00860   0.01115   0.02233
     Eigenvalues ---    0.04373   0.04426   0.05289   0.05472   0.05801
     Eigenvalues ---    0.06932   0.15452   0.16000   0.16000   0.16000
     Eigenvalues ---    0.16000   0.16526   0.17885   0.18709   0.24893
     Eigenvalues ---    0.25048   0.30079   0.31042   0.34017   0.34127
     Eigenvalues ---    0.34200   0.34367   0.37052   0.44346   0.44375
     Eigenvalues ---    0.51312   0.54419   0.91361
 RFO step:  Lambda=-2.43815747D-03 EMin= 4.66624305D-03
 Quartic linear search produced a step of -0.03475.
 Iteration  1 RMS(Cart)=  0.07685632 RMS(Int)=  0.00787330
 Iteration  2 RMS(Cart)=  0.01076620 RMS(Int)=  0.00136157
 Iteration  3 RMS(Cart)=  0.00014916 RMS(Int)=  0.00135747
 Iteration  4 RMS(Cart)=  0.00000016 RMS(Int)=  0.00135747
 ITry= 1 IFail=0 DXMaxC= 2.58D-01 DCOld= 1.00D+10 DXMaxT= 5.05D-01 DXLimC= 3.00D+00 Rises=F
 Variable       Old X    -DE/DX   Delta X   Delta X   Delta X     New X
                                 (Linear)    (Quad)   (Total)
    R1        2.54056   0.00383   0.00096  -0.00020   0.00076   2.54132
    R2        1.82647   0.00134   0.00095  -0.00449  -0.00353   1.82293
    R3        2.26092  -0.00036   0.00172  -0.01299  -0.01126   2.24966
    R4        2.76114  -0.00640   0.00003  -0.01670  -0.01668   2.74446
    R5        1.91489  -0.00024   0.00042  -0.00354  -0.00313   1.91176
    R6        1.91689   0.00010   0.00036  -0.00242  -0.00206   1.91483
    R7        2.89424  -0.00007  -0.00059   0.00406   0.00347   2.89772
    R8        2.85730   0.00197   0.00012   0.00516   0.00528   2.86258
    R9        2.06233   0.00146   0.00024   0.00226   0.00250   2.06483
   R10        2.06419  -0.00223   0.00021  -0.00776  -0.00754   2.05664
   R11        2.05909   0.00045   0.00040  -0.00166  -0.00127   2.05782
   R12        2.06275   0.00054   0.00030  -0.00071  -0.00040   2.06235
    A1        1.86892   0.00033   0.00290  -0.01927  -0.01637   1.85255
    A2        1.90748   0.00045   0.00012   0.00632   0.00635   1.91383
    A3        1.92016   0.00063  -0.00008   0.00886   0.00868   1.92884
    A4        1.87254   0.00043  -0.00092   0.01867   0.01756   1.89010
    A5        2.01837  -0.00095  -0.00359   0.01800   0.01442   2.03279
    A6        1.89603  -0.00013  -0.00033  -0.00060  -0.00089   1.89514
    A7        1.87149   0.00066   0.00089   0.00004   0.00093   1.87242
    A8        1.90813   0.00052   0.00090  -0.00657  -0.00561   1.90252
    A9        1.90426  -0.00018   0.00117  -0.00994  -0.00877   1.89549
   A10        1.85891   0.00016   0.00114  -0.00226  -0.00112   1.85779
   A11        1.96721  -0.00296  -0.00105  -0.00968  -0.01076   1.95646
   A12        1.91246  -0.00009   0.00097  -0.00818  -0.00724   1.90523
   A13        1.91971   0.00052   0.00098  -0.00371  -0.00273   1.91698
   A14        1.88788   0.00149  -0.00044   0.01110   0.01062   1.89850
   A15        1.88387   0.00139  -0.00042   0.01217   0.01174   1.89562
   A16        1.89087  -0.00024  -0.00009  -0.00095  -0.00104   1.88982
   A17        2.14023  -0.00058   0.00036   0.00017  -0.00525   2.13497
   A18        1.93507   0.00288  -0.00030   0.01783   0.01179   1.94686
   A19        2.20489  -0.00209   0.00004  -0.00376  -0.00944   2.19545
    D1        0.04131  -0.00129  -0.00159  -0.09178  -0.09347  -0.05216
    D2        3.10457   0.00132   0.00147   0.09363   0.09520  -3.08341
    D3        1.01092  -0.00023   0.00133  -0.05745  -0.05603   0.95489
    D4       -3.11991  -0.00033  -0.00010  -0.05367  -0.05375   3.10953
    D5       -1.11731   0.00013   0.00154  -0.05659  -0.05501  -1.17232
    D6       -1.04083  -0.00139   0.00243  -0.08905  -0.08664  -1.12747
    D7        1.11153  -0.00148   0.00099  -0.08528  -0.08435   1.02717
    D8        3.11414  -0.00102   0.00263  -0.08819  -0.08562   3.02851
    D9       -3.08199  -0.00012  -0.00024  -0.00582  -0.00606  -3.08805
   D10       -0.97880  -0.00024  -0.00083  -0.00380  -0.00462  -0.98342
   D11        1.09804  -0.00028   0.00032  -0.01224  -0.01192   1.08612
   D12        1.05522   0.00033   0.00198  -0.01289  -0.01091   1.04431
   D13       -3.12478   0.00020   0.00139  -0.01088  -0.00947  -3.13425
   D14       -1.04794   0.00017   0.00254  -0.01932  -0.01677  -1.06471
   D15       -0.97136  -0.00005  -0.00069  -0.00094  -0.00166  -0.97301
   D16        1.13183  -0.00018  -0.00129   0.00107  -0.00022   1.13161
   D17       -3.07451  -0.00021  -0.00013  -0.00737  -0.00752  -3.08203
   D18        3.05576  -0.00184   0.00246  -0.23416  -0.23148   2.82428
   D19       -0.16773   0.00098   0.00566  -0.04004  -0.03462  -0.20235
   D20       -1.01029  -0.00277  -0.00164  -0.21636  -0.21775  -1.22804
   D21        2.04941   0.00005   0.00156  -0.02224  -0.02088   2.02852
   D22        1.04495  -0.00262   0.00098  -0.23276  -0.23156   0.81340
   D23       -2.17853   0.00020   0.00419  -0.03864  -0.03469  -2.21323
         Item               Value     Threshold  Converged?
 Maximum Force            0.006403     0.000450     NO 
 RMS     Force            0.001528     0.000300     NO 
 Maximum Displacement     0.257751     0.001800     NO 
 RMS     Displacement     0.084961     0.001200     NO 
 Predicted change in Energy=-1.488865D-03
 Lowest energy point so far.  Saving SCF results.
 GradGradGradGradGradGradGradGradGradGradGradGradGradGradGradGradGradGrad

 Leave Link  103 at Tue Feb 13 18:33:06 2024, MaxMem=  6442450944 cpu:               1.2 elap:               0.2
 (Enter /usr/local/g16_bin/l202.exe)
                          Input orientation:                          
 ---------------------------------------------------------------------
 Center     Atomic      Atomic             Coordinates (Angstroms)
 Number     Number       Type             X           Y           Z
 ---------------------------------------------------------------------
      1          8           0        1.462114   -1.003199    0.375057
      2          8           0        1.206621    0.998712   -0.554953
      3          7           0       -1.382827    1.171396    0.243486
      4          6           0       -0.734926   -0.125308    0.332782
      5          6           0       -1.349596   -1.255398   -0.501729
      6          6           0        0.721605    0.035331   -0.051098
      7          1           0       -0.746721   -0.422349    1.384227
      8          1           0       -0.842921   -2.205103   -0.341104
      9          1           0       -2.398851   -1.368082   -0.233065
     10          1           0       -1.292824   -1.005396   -1.562538
     11          1           0       -2.364840    1.077270    0.467644
[...]
 ! R9    R(4,7)                  1.0924         -DE/DX =    0.0                 !
 ! R10   R(5,8)                  1.0902         -DE/DX =    0.0                 !
 ! R11   R(5,9)                  1.0904         -DE/DX =    0.0                 !
 ! R12   R(5,10)                 1.0914         -DE/DX =    0.0                 !
 ! A1    A(6,1,13)             107.2986         -DE/DX =    0.0                 !
 ! A2    A(4,3,11)             110.8023         -DE/DX =    0.0                 !
 ! A3    A(4,3,12)             109.6683         -DE/DX =    0.0                 !
 ! A4    A(11,3,12)            108.6189         -DE/DX =    0.0                 !
 ! A5    A(3,4,5)              114.937          -DE/DX =    0.0                 !
 ! A6    A(3,4,6)              108.1889         -DE/DX =    0.0                 !
 ! A7    A(3,4,7)              109.6002         -DE/DX =    0.0                 !
 ! A8    A(5,4,6)              107.7419         -DE/DX =    0.0                 !
 ! A9    A(5,4,7)              108.7631         -DE/DX =    0.0                 !
 ! A10   A(6,4,7)              107.3368         -DE/DX =    0.0                 !
 ! A11   A(4,5,8)              111.4497         -DE/DX =    0.0                 !
 ! A12   A(4,5,9)              109.4151         -DE/DX =    0.0                 !
 ! A13   A(4,5,10)             109.9531         -DE/DX =    0.0                 !
 ! A14   A(8,5,9)              108.3869         -DE/DX =    0.0                 !
 ! A15   A(8,5,10)             109.0976         -DE/DX =    0.0                 !
 ! A16   A(9,5,10)             108.4748         -DE/DX =    0.0                 !
 ! A17   A(1,6,2)              122.8719         -DE/DX =    0.0                 !
 ! A18   A(1,6,4)              112.0925         -DE/DX =    0.0                 !
 ! A19   A(2,6,4)              124.9691         -DE/DX =    0.0                 !
 ! D1    D(13,1,6,2)            -0.6278         -DE/DX =    0.0                 !
 ! D2    D(13,1,6,4)           176.542          -DE/DX =    0.0                 !
 ! D3    D(11,3,4,5)            39.1282         -DE/DX =    0.0                 !
 ! D4    D(11,3,4,6)           159.5599         -DE/DX =    0.0                 !
 ! D5    D(11,3,4,7)           -83.6995         -DE/DX =    0.0                 !
 ! D6    D(12,3,4,5)           -80.7718         -DE/DX =    0.0                 !
 ! D7    D(12,3,4,6)            39.6598         -DE/DX =    0.0                 !
 ! D8    D(12,3,4,7)           156.4005         -DE/DX =    0.0                 !
 ! D9    D(3,4,5,8)           -179.4484         -DE/DX =    0.0                 !
 ! D10   D(3,4,5,9)            -59.5927         -DE/DX =    0.0                 !
 ! D11   D(3,4,5,10)            59.4463         -DE/DX =    0.0                 !
 ! D12   D(6,4,5,8)             59.8745         -DE/DX =    0.0                 !
 ! D13   D(6,4,5,9)            179.7301         -DE/DX =    0.0                 !
 ! D14   D(6,4,5,10)           -61.2308         -DE/DX =    0.0                 !
 ! D15   D(7,4,5,8)            -56.1732         -DE/DX =    0.0                 !
 ! D16   D(7,4,5,9)             63.6825         -DE/DX =    0.0                 !
 ! D17   D(7,4,5,10)          -177.2784         -DE/DX =    0.0                 !
 ! D18   D(3,4,6,1)            157.2192         -DE/DX =    0.0                 !
 ! D19   D(3,4,6,2)            -25.6816         -DE/DX =    0.0                 !
 ! D20   D(5,4,6,1)            -77.955          -DE/DX =    0.0                 !
 ! D21   D(5,4,6,2)             99.1442         -DE/DX =    0.0                 !
 ! D22   D(7,4,6,1)             39.0244         -DE/DX =    0.0                 !
 ! D23   D(7,4,6,2)           -143.8764         -DE/DX =    0.0                 !
 --------------------------------------------------------------------------------
 GradGradGradGradGradGradGradGradGradGradGradGradGradGradGradGradGradGrad

 Leave Link  103 at Tue Feb 13 18:38:15 2024, MaxMem=  6442450944 cpu:               0.9 elap:               0.1
 (Enter /usr/local/g16_bin/l9999.exe)

 ----------------------------------------------------------------------

 Electric dipole moment (input orientation):
 (Debye = 10**-18 statcoulomb cm , SI units = C m)
                  (au)            (Debye)         (10**-30 SI)
   Tot        0.857375D+00      0.217923D+01      0.726912D+01
   x         -0.300416D+00     -0.763582D+00     -0.254703D+01
   y         -0.796734D+00     -0.202510D+01     -0.675499D+01
   z         -0.100280D+00     -0.254885D+00     -0.850207D+00

 Dipole polarizability, Alpha (input orientation).
 (esu units = cm**3 , SI units = C**2 m**2 J**-1)
 Alpha(0;0):
               (au)            (10**-24 esu)      (10**-40 SI)
   iso        0.500064D+02      0.741018D+01      0.824494D+01
   aniso      0.120291D+02      0.178253D+01      0.198333D+01
   xx         0.549321D+02      0.814009D+01      0.905708D+01
   yx        -0.582026D+00     -0.862474D-01     -0.959632D-01
   yy         0.518745D+02      0.768700D+01      0.855294D+01
   zx        -0.662841D+00     -0.982230D-01     -0.109288D+00
   zy        -0.324053D+01     -0.480197D+00     -0.534291D+00
   zz         0.432126D+02      0.640344D+01      0.712479D+01

 ----------------------------------------------------------------------

 Dipole orientation:
     8          2.70400935          2.03329876          0.53921255
     8          1.84736494         -1.11601348         -2.13692571
     7         -3.20092828         -0.73822948         -1.14267487
     6         -1.43665044          0.33120556          0.66112269
     6         -1.26894866         -1.07820296          3.19066419
     6          1.16490978          0.31456279         -0.51881996
     1         -1.93219118          2.30094338          1.03007356
     1          0.07097518         -0.17521655          4.46884819
     1         -3.12152246         -1.08915162          4.09280194
     1         -0.68600140         -3.03066040          2.87121016
     1         -4.78584558         -1.34673567         -0.26331605
     1         -2.38745064         -2.22585904         -2.03641746
     1          4.35004916          1.83981371         -0.23580570

 Electric dipole moment (dipole orientation):
 (Debye = 10**-18 statcoulomb cm , SI units = C m)
                  (au)            (Debye)         (10**-30 SI)
   Tot        0.857375D+00      0.217923D+01      0.726912D+01
   x          0.000000D+00      0.000000D+00      0.000000D+00
   y          0.000000D+00      0.000000D+00      0.000000D+00
   z          0.857375D+00      0.217923D+01      0.726912D+01

 Dipole polarizability, Alpha (dipole orientation).
 (esu units = cm**3 , SI units = C**2 m**2 J**-1)
 Alpha(0;0):
               (au)            (10**-24 esu)      (10**-40 SI)
   iso        0.500064D+02      0.741018D+01      0.824494D+01
   aniso      0.120291D+02      0.178253D+01      0.198333D+01
   xx         0.532869D+02      0.789630D+01      0.878582D+01
   yx         0.392042D+01      0.580946D+00      0.646389D+00
   yy         0.457386D+02      0.677777D+01      0.754128D+01
   zx        -0.206462D+01     -0.305946D+00     -0.340411D+00
   zy         0.369132D+01      0.546997D+00      0.608616D+00
   zz         0.509936D+02      0.755647D+01      0.840771D+01

 ----------------------------------------------------------------------
 Unable to Open any file for archive entry.
 1\1\GINC-QTCOVI02\Freq\RM062X\def2TZVP\C3H7N1O2\ALEJANDRO\13-Feb-2024\
 0\\#P Geom=AllCheck Guess=TCheck SCRF=Check GenChk RM062X/def2TZVP Fre
 q\\5950 alanine\\0,1\O,1.487299243,-0.9263992113,0.4651257469\O,1.0941
 977693,0.8998419087,-0.7590740592\N,-1.4096805848,1.144322201,0.301212
 3508\C,-0.7481708224,-0.1432506664,0.3883332064\C,-1.3556240541,-1.243
 8090398,-0.4923994366\C,0.6934097152,0.0376621639,-0.0291986678\H,-0.7
 461311357,-0.4847241523,1.4259978549\H,-0.8222078296,-2.1874663661,-0.
 3759144373\H,-2.3971695616,-1.4003388777,-0.2101175841\H,-1.323006223,
 -0.9422337623,-1.5408368065\H,-2.4131135503,1.0294469661,0.2414268754\
 H,-1.0902912003,1.6369347032,-0.5258462118\H,2.3764582344,-0.775975867
 ,0.1127411689\\Version=ES64L-G16RevC.01\State=1-A\HF=-323.7457043\RMSD
 =3.789e-09\RMSF=1.913e-05\ZeroPoint=0.1089487\Thermal=0.1157443\ETot=-
 323.62996\HTot=-323.6290158\GTot=-323.667265\Dipole=-0.3004162,-0.7967
 341,-0.1002797\DipoleDeriv=-0.8741821,0.4863211,-0.2988801,0.3818074,-
 0.8096773,0.2609442,-0.1663416,0.2086664,-0.4720939,-0.7758226,-0.2174
 829,0.189959,-0.0121333,-0.8542359,0.3262907,0.1129293,0.4337237,-0.62
 95272,-0.3725535,0.1301285,-0.0196279,0.0809937,-0.7264353,-0.123284,0
 .0062993,-0.171778,-0.4363885,0.0147417,-0.2045707,0.0495505,-0.214696
 7,0.4838865,0.1081419,0.0839172,0.004549,0.2199887,-0.0034452,-0.03340
 82,-0.0077483,0.0698959,-0.0514189,-0.0706204,0.0383807,-0.0455014,0.0
 291086,1.4029695,-0.1393658,0.0246908,-0.2563539,1.2552445,-0.6603501,
 -0.0531359,-0.7158025,0.7063447,0.0304711,0.0004819,-0.0211684,0.02978
 09,-0.0143611,0.0240824,-0.0188273,0.0542137,-0.0738742,0.0395048,0.08
 44046,-0.0158266,0.0529224,-0.0846402,-0.0176741,-0.018928,0.0096791,0
 .0561971,-0.1191887,-0.0456388,0.0318567,-0.0227392,0.0487418,-0.01192
 35,0.0405419,-0.0146789,0.0451647,0.0614732,-0.0212997,0.0180364,-0.00
 96734,0.0293654,0.07539,-0.0162687,0.0146122,-0.0822493,0.0553361,-0.0
 201901,-0.0224573,-0.0756742,0.1870916,0.0441855,-0.0757274,0.0865452,
 0.2465176,0.2140638,0.023665,0.0305995,0.0380519,0.2456855,-0.0017547,
 0.0075071,0.0891797,0.1022856,0.3266318,-0.0430446,0.0410157,-0.062181
 5,0.2907535,0.0465723,0.0596535,0.0465919,0.288526\Polar=54.9320742,-0
 .5820262,51.8744655,-0.6628413,-3.2405279,43.2125859\Quadrupole=4.9800
 68,-3.1023426,-1.8777255,-1.5777914,1.2173077,-0.2029071\PG=C01 [X(C3H
 7N1O2)]\NImag=0\\0.62843813,-0.05047514,0.29180942,-0.11872522,-0.1717
 1587,0.19781442,0.03563348,0.02581095,-0.01992373,0.19026737,0.0187559
 1,-0.06731870,0.06592122,0.17429900,0.50282099,-0.01591031,0.06497198,
 -0.01336252,-0.16629181,-0.38360085,0.35273660,-0.00941705,0.00095680,
 0.00133987,-0.00152511,0.00463458,-0.00294477,0.67014965,-0.00200356,0
 .00154033,-0.00095885,-0.00235906,0.00169422,0.00091585,0.00309083,0.4
 3367373,0.00234690,-0.00079987,0.00118992,0.00142876,-0.00060421,0.001
 08377,-0.08746939,-0.21081157,0.38492326,-0.02822082,0.00623964,0.0037
 4351,-0.00886460,-0.01052843,0.01385596,-0.12164174,0.04705765,-0.0013
 6516,0.51311962,0.03045652,0.00328356,-0.00074653,-0.02744313,-0.00853
 646,0.02512974,0.06926592,-0.20259173,0.04703468,-0.02943081,0.5027424
 4,-0.01185120,0.00560295,0.00957503,0.03044734,0.02236316,0.00305846,0
 .02252655,0.00613680,-0.07656973,-0.01347819,-0.08371164,0.58289258,-0
 .00185964,0.00170385,0.00126823,-0.00164846,0.00190729,0.00475881,0.00
 622612,0.01943170,0.00935045,-0.10019890,-0.03851755,-0.03410331,0.566
 72622,0.00224437,-0.00272393,-0.00022985,0.00199924,0.00253923,-0.0014
 9370,-0.00563150,-0.03929337,-0.01938996,-0.02253679,-0.11556417,-0.03
 784805,-0.03748032,0.52308457,0.00128414,-0.00118012,0.00026690,0.0030
 7985,0.00145340,-0.00490882,0.00282382,-0.00041550,0.00425247,-0.02481
 505,-0.03883787,-0.11534834,-0.02576786,-0.05464669,0.53708397,-0.2028
 5181,0.07094145,-0.01634500,-0.21063384,-0.17460918,0.16070595,-0.0262
 6514,0.00815238,0.00092503,-0.18489334,-0.00296303,0.03123804,-0.01686
 428,-0.01852561,-0.00601603,0.67647377,0.08741958,-0.17865548,0.058548
 94,-0.16040049,-0.43224895,0.29527950,0.03474978,-0.00461623,-0.006877
 81,-0.00936814,-0.07199045,-0.00370247,-0.02869001,-0.00696442,0.00439
 021,0.07229138,0.70180785,-0.02925274,0.06310046,-0.10479594,0.1479552
 9,0.30048831,-0.33615330,0.00075694,0.00003730,-0.00079016,0.03099631,
 -0.00679944,-0.09531337,-0.02340500,-0.00075756,0.00820612,-0.15887476
 ,-0.34820440,0.53430060,-0.00124386,0.00009416,-0.00192255,-0.00766936
 ,-0.00356962,0.00011864,0.00230285,0.01227666,-0.01521876,-0.05186610,
 -0.00070067,0.00588839,0.00130498,0.00225027,-0.01668927,0.00378503,-0
 .00917076,0.03403239,0.05569596,0.00156082,0.00008337,-0.00072580,-0.0
 0108833,0.00082836,-0.00015819,0.00032781,-0.02082997,0.02744494,-0.00
 064269,-0.06504805,0.07240813,-0.00017568,0.00559108,-0.02473230,-0.00
 209236,-0.00337564,0.00609732,-0.00129982,0.08771945,-0.00091711,-0.00
 054490,0.00164827,0.00184024,-0.00067991,0.00063224,-0.00189044,0.0041
 1788,0.00443310,0.00741258,0.07471387,-0.28795299,0.00037383,0.0024318
 4,-0.01972777,-0.00141789,0.00454924,-0.01125379,-0.00326612,-0.081254
 69,0.31043306,-0.00070950,0.00005271,-0.00016679,-0.00011611,0.0002165
 5,-0.00029717,0.00004151,-0.00327563,-0.00192345,0.00646897,-0.0111230
 3,0.00361887,-0.11431409,0.11729581,-0.01538393,0.00093760,-0.00097454
 ,0.00079894,0.00045682,0.00063140,0.00020510,0.12032716,-0.00013173,0.
 00152576,0.00008221,-0.00062005,0.00062274,-0.00033045,-0.00153951,-0.
 00524519,-0.00422156,0.01156994,-0.01647210,0.00607725,0.11511409,-0.2
 4934082,0.02575847,0.00219773,-0.00257956,0.00076670,0.00004071,0.0006
 9491,-0.00024482,-0.12633471,0.27090594,0.00006820,-0.00013276,-0.0002
 9640,-0.00003945,0.00010457,-0.00003830,-0.00136913,-0.00442890,-0.000
 51034,0.01161592,-0.01388514,0.00311809,-0.01589139,0.02720118,-0.0525
 5088,0.00032521,0.00004625,0.00063900,0.00048215,0.00073186,0.00014594
 ,0.01724171,-0.02737831,0.05108644,-0.00062451,-0.00003759,0.00010711,
 -0.00043949,-0.00043758,0.00080214,0.00211100,0.00091750,-0.00010022,-
 0.01428933,-0.00158534,0.00299466,-0.29364994,-0.03476218,0.07035579,0
 .00170905,-0.00079910,-0.00296441,0.00046385,0.00020832,-0.00025324,-0
 .01353941,-0.00283218,0.00403172,0.31740330,-0.00063755,0.00134994,0.0
 0031686,-0.00119602,0.00005471,0.00142131,-0.00027126,0.00284520,0.000
 73736,-0.02518822,-0.00711607,0.00433260,-0.03382336,-0.05014785,0.011
 59363,0.00176425,-0.00433536,-0.00405692,0.00110204,0.00092540,0.00051
 241,0.02673261,0.00542385,-0.00829763,0.03976988,0.05394441,-0.0008750
 6,0.00057306,0.00026878,-0.00126114,-0.00043257,0.00221987,-0.00017060
 ,0.00225720,0.00008682,-0.02221705,-0.00541937,0.00343716,0.07133595,0
 .01108546,-0.06567910,0.00133040,-0.00303293,-0.00395311,0.00023279,0.
 00101819,0.00104892,-0.00407357,-0.00078705,0.00003574,-0.07494416,-0.
 00855802,0.06909319,-0.00027310,-0.00009419,0.00044550,0.00011258,-0.0
 0012732,0.00084125,-0.00010342,0.00073840,0.00111496,-0.00152136,0.004
 06444,-0.01499540,-0.04805614,-0.00251146,0.01061726,0.00103266,0.0014
 0134,-0.00269463,-0.00058523,-0.00242031,-0.00164409,0.00038093,0.0032
 3961,-0.01585764,0.00038207,-0.00881200,0.02995085,0.04843229,0.000054
 11,-0.00008895,0.00014462,0.00037485,-0.00024988,0.00049950,0.00010096
 ,0.00300154,0.00118626,-0.00029803,0.00506955,-0.02471831,-0.00159964,
 -0.06954686,0.07563829,0.00124291,0.00155892,-0.00109561,-0.00237283,-
 0.00314457,-0.00300335,-0.00294062,-0.00625116,0.02635299,0.00037852,-
 0.00219332,0.00322669,0.00491145,0.07226158,-0.00048306,-0.00013951,0.
 00023721,-0.00068162,-0.00080793,0.00121875,0.00075763,0.00052148,0.00
 311025,-0.00167419,0.00584505,-0.02016422,0.01030909,0.07389547,-0.293
 55401,0.00194968,0.00136248,-0.00157076,-0.00203090,-0.00314327,-0.000
 54563,0.00016622,0.00014166,-0.00110956,-0.00031155,0.00187278,-0.0069
 2077,-0.00829500,-0.07833333,0.31991867,-0.00097756,0.00016785,0.00034
 027,0.00029518,0.00042645,-0.00020548,-0.42916484,-0.03810158,-0.00607
 488,-0.01631496,-0.00471775,-0.00295975,0.00267797,-0.00234649,0.00020
 241,0.00014531,0.00184802,-0.00131483,-0.00058925,0.00046752,0.0001063
 4,0.00009908,-0.00073675,-0.00048876,0.00037367,0.00076625,0.00063656,
 -0.00003414,0.00043229,0.00024242,0.45442206,0.00240271,0.00029539,-0.
 00072624,-0.00053900,0.00179514,-0.00020776,-0.06533847,-0.05336104,0.
 02165375,0.03909257,0.00019315,-0.00137416,0.00139470,0.00263495,-0.00
 001499,0.00057011,-0.00762630,0.00241002,-0.00012773,0.00001567,0.0004
 7202,-0.00033787,0.00034364,0.00032312,-0.00096872,-0.00082740,0.00012
 663,-0.00014872,-0.00008353,-0.00029595,0.04297921,0.05924570,-0.00033
 736,-0.00005996,0.00036284,0.00075243,-0.00107840,0.00044474,-0.050735
 92,0.01718767,-0.02845397,-0.00054651,-0.00443807,-0.00234691,0.000247
 14,0.00108237,0.00062269,0.00186180,0.00068233,-0.00135440,-0.00052190
 ,0.00057561,-0.00035088,-0.00011047,0.00050744,0.00000891,0.00007212,-
 0.00011333,0.00038481,0.00037337,-0.00009237,-0.00030086,0.01560077,-0
 .01639032,0.02948207,0.00109878,-0.00271526,0.00188025,-0.00105589,-0.
 00341338,0.00195150,-0.09168587,-0.04517827,0.09697769,0.00670322,0.00
 746923,-0.01768015,-0.00078264,0.00014536,0.00038941,0.00011701,0.0078
 6973,-0.00540632,-0.00269078,0.00471737,-0.00072013,0.00012784,0.00026
 290,-0.00007194,-0.00008981,-0.00015043,0.00000854,0.00033746,-0.00027
 521,0.00008933,-0.01095986,-0.01948891,0.03347414,0.09923905,-0.000692
 97,0.00046773,-0.00012279,-0.00216738,0.00023416,-0.00139994,-0.041112
 11,-0.11673695,0.14477088,-0.00808695,-0.02241608,0.03057001,0.0002520
 4,-0.00031678,0.00116794,0.00083680,-0.00056808,0.00236320,0.00174045,
 -0.00315497,-0.00120245,0.00005845,0.00021012,-0.00082367,0.00010006,-
 0.00002848,-0.00007514,-0.00016748,-0.00041755,-0.00087767,-0.00134620
 ,-0.00238557,0.00208395,0.05048745,0.14509372,-0.00016024,0.00020075,-
 0.00000460,0.00106403,-0.00217300,-0.00099887,0.11732048,0.18584114,-0
 .29315703,-0.00330495,-0.00318202,-0.00606082,0.00081878,-0.00141171,0
 .00151792,0.00157349,0.00146132,0.00009142,-0.00087528,0.00209852,0.00
 103451,-0.00000628,-0.00042383,-0.00061587,0.00014388,0.00007667,-0.00
 002366,0.00027279,0.00018928,-0.00022323,-0.00601083,-0.00626709,0.001
 37655,-0.11089096,-0.17640073,0.29697638,-0.41899254,-0.05264523,0.147
 95855,0.00564424,-0.00755427,0.00261530,-0.00102797,-0.00074702,0.0000
 0806,0.00151934,0.00522521,-0.00164583,0.00043879,-0.00014068,-0.00008
 053,-0.04269201,0.00382321,0.00937282,0.00063508,-0.00019404,0.0001709
 2,-0.00016082,-0.00023004,-0.00004659,0.00018956,-0.00005620,0.0000464
 8,-0.00010459,-0.00000875,-0.00003804,0.00002732,0.00051011,-0.0001296
 1,-0.00035851,0.00009784,0.00005510,0.45488211,-0.08895307,-0.05156844
 ,0.05021207,-0.00667057,-0.00223556,-0.00102698,0.00076618,-0.00008053
 ,-0.00012288,0.00212027,-0.00155358,0.00386373,0.00048288,0.00004838,-
 0.00017447,0.04019318,0.00959370,-0.01434939,-0.00026284,-0.00030505,0
 .00013286,-0.00000113,0.00016188,0.00018646,0.00004840,0.00010498,0.00
 001784,-0.00007376,0.00008423,-0.00004125,0.00016118,-0.00023980,0.000
 05309,0.00026942,0.00001873,-0.00000931,0.05191987,0.04597106,0.174813
 06,0.04012379,-0.09290390,0.00162979,-0.00095379,-0.00593261,-0.000945
 03,-0.00040051,0.00040163,-0.00022318,0.00429675,0.00167508,0.00070529
 ,0.00008121,-0.00018116,-0.01725592,-0.00450267,0.01194768,-0.00022958
 ,-0.00036032,0.00045503,-0.00006916,0.00005229,0.00008723,0.00006617,0
 .00016229,0.00000135,-0.00012923,0.00000535,-0.00009585,-0.00007422,0.
 00029097,0.00012441,-0.00000136,-0.00005358,0.00008731,-0.15828664,-0.
 03874179,0.08433380\\0.00000580,-0.00000534,0.00000073,-0.00000246,-0.
 00003509,0.00001971,0.00001880,0.00001300,0.00003243,-0.00003034,-0.00
 004784,-0.00003886,0.00000058,0.00001794,0.00002034,-0.00000580,0.0000
 6682,-0.00002059,-0.00000105,0.00001173,0.00000229,0.00000282,0.000002
 06,0.00000097,0.00000107,0.00000029,-0.00000228,-0.00000480,-0.0000014
 1,0.00000076,0.00000374,-0.00001177,-0.00000742,0.00000594,-0.00001130
 ,-0.00000523,0.00000570,0.00000090,-0.00000284\\\@
 The archive entry for this job was punched.


 NOTHING RESEMBLES A NEW PHENOMENON AS MUCH AS A MISTAKE.

                               -- ENRICO FERMI (?)
 Job cpu time:       0 days  0 hours 33 minutes 23.3 seconds.
 Elapsed time:       0 days  0 hours  2 minutes 12.9 seconds.
 File lengths (MBytes):  RWF=     68 Int=      0 D2E=      0 Chk=      5 Scr=      1
 Normal termination of Gaussian 16 at Tue Feb 13 18:38:15 2024.
