 Entering Gaussian System, Link 0=/opt/g16//g16.exe
 Input=alanine_conf5.com
 Output=alanine_conf5.log
 Initial command:
 /opt/g16/l1.exe "/scratch/Gau-26319.inp" -scrdir="/scratch/"
 Default is to use a total of   8 processors:
                                8 via shared-memory
                                1 via Linda
 Entering Link 1 = /opt/g16/l1.exe PID=     26320.
  
 Copyright (c) 1988,1990,1992,1993,1995,1998,2003,2009,2016,
            Gaussian, Inc.  All Rights Reserved.
  
 This is part of the Gaussian(R) 16 program.  It is based on
 the Gaussian(R) 09 system (copyright 2009, Gaussian, Inc.),
 the Gaussian(R) 03 system (copyright 2003, Gaussian, Inc.),
 the Gaussian(R) 98 system (copyright 1998, Gaussian, Inc.),
 the Gaussian(R) 94 system (copyright 1995, Gaussian, Inc.),
 the Gaussian 92(TM) system (copyright 1992, Gaussian, Inc.),
 the Gaussian 90(TM) system (copyright 1990, Gaussian, Inc.),
 the Gaussian 88(TM) system (copyright 1988, Gaussian, Inc.),
 the Gaussian 86(TM) system (copyright 1986, Carnegie Mellon
 University), and the Gaussian 82(TM) system (copyright 1983,
 Carnegie Mellon University). Gaussian is a federally registered
 trademark of Gaussian, Inc.
  
 This software contains proprietary and confidential information,
 including trade secrets, belonging to Gaussian, Inc.
  
 This software is provided under written license and may be
 used, copied, transmitted, or stored only in accord with that
 written license.
  
 The following legend is applicable only to US Government
 contracts under FAR:
  
                    RESTRICTED RIGHTS LEGEND
  
 Use, reproduction and disclosure by the US Government is
 subject to restrictions as set forth in subparagraphs (a)
 and (c) of the Commercial Computer Software - Restricted
 Rights clause in FAR 52.227-19.
  
 Gaussian, Inc.
 340 Quinnipiac St., Bldg. 40, Wallingford CT 06492
  
  
 ---------------------------------------------------------------
 Warning -- This program may not be used in any manner that
 competes with the business of Gaussian, Inc. or will provide
 assistance to any competitor of Gaussian, Inc.  The licensee
 of this program is prohibited from giving any competitor of
 Gaussian, Inc. access to this program.  By using this program,
 the user acknowledges that Gaussian, Inc. is engaged in the
 business of creating and licensing software in the field of
 computational chemistry and represents and warrants to the
 licensee that it is not a competitor of Gaussian, Inc. and that
 it will not use this program in any manner prohibited above.
 ---------------------------------------------------------------
  

 Cite this work as:
 Gaussian 16, Revision A.03,
 M. J. Frisch, G. W. Trucks, H. B. Schlegel, G. E. Scuseria, 
 M. A. Robb, J. R. Cheeseman, G. Scalmani, V. Barone, 
 G. A. Petersson, H. Nakatsuji, X. Li, M. Caricato, A. V. Marenich, 
 J. Bloino, B. G. Janesko, R. Gomperts, B. Mennucci, H. P. Hratchian, 
 J. V. Ortiz, A. F. Izmaylov, J. L. Sonnenberg, D. Williams-Young, 
 F. Ding, F. Lipparini, F. Egidi, J. Goings, B. Peng, A. Petrone, 
 T. Henderson, D. Ranasinghe, V. G. Zakrzewski, J. Gao, N. Rega, 
 G. Zheng, W. Liang, M. Hada, M. Ehara, K. Toyota, R. Fukuda, 
 J. Hasegawa, M. Ishida, T. Nakajima, Y. Honda, O. Kitao, H. Nakai, 
 T. Vreven, K. Throssell, J. A. Montgomery, Jr., J. E. Peralta, 
 F. Ogliaro, M. J. Bearpark, J. J. Heyd, E. N. Brothers, K. N. Kudin, 
 V. N. Staroverov, T. A. Keith, R. Kobayashi, J. Normand, 
 K. Raghavachari, A. P. Rendell, J. C. Burant, S. S. Iyengar, 
 J. Tomasi, M. Cossi, J. M. Millam, M. Klene, C. Adamo, R. Cammi, 
 J. W. Ochterski, R. L. Martin, K. Morokuma, O. Farkas, 
 J. B. Foresman, and D. J. Fox, Gaussian, Inc., Wallingford CT, 2016.
 
 ******************************************
 Gaussian 16:  ES64L-G16RevA.03 25-Dec-2016
                13-Feb-2024 
 ******************************************
 Default route: Maxdisk=600Gb
 --------------------------
 #p m062X def2TZVP opt freq
 --------------------------
 1/18=20,19=15,26=3,38=1/1,3;
 2/9=110,12=2,17=6,18=5,40=1/2;
 3/5=44,7=101,11=2,25=1,30=1,71=1,74=-55/1,2,3;
 4//1;
 5/5=2,38=5/2;
 6/7=2,8=2,9=2,10=2,28=1/1;
 7//1,2,3,16;
 1/18=20,19=15,26=3/3(2);
 2/9=110/2;
 99//99;
 2/9=110/2;
 3/5=44,7=101,11=2,25=1,30=1,71=1,74=-55/1,2,3;
 4/5=5,16=3,69=1/1;
 5/5=2,38=5/2;
 7//1,2,3,16;
 1/18=20,19=15,26=3/3(-5);
 2/9=110/2;
 6/7=2,8=2,9=2,10=2,19=2,28=1/1;
 99/9=1/99;
 Leave Link    1 at Tue Feb 13 18:55:13 2024, MaxMem=           0 cpu:               0.6 elap:               0.1
 (Enter /opt/g16/l101.exe)
 ------------
 5950 alanine
 ------------
 Symbolic Z-matrix:
 Charge =  0 Multiplicity = 1
 O                     0.95469   1.36424  -0.39464 
 O                     1.63358  -0.74971   0.08838 
 N                    -1.4105    1.1507    0.1821 
 C                    -0.7085   -0.1136    0.3937 
 C                    -1.3345   -1.2      -0.4702 
 C                     0.747     0.0903    0.0308 
 H                    -0.7666   -0.3737    1.4558 
 H                    -0.858    -2.1695   -0.2878 
 H                    -2.4023   -1.3127   -0.2521 
 H                    -1.2248   -0.9797   -1.5384 
 H                    -2.3916    1.042     0.4376 
 H                    -1.4071    1.3875   -0.8099 
 H                     1.89167   1.51912  -0.64058 
 
 ITRead=  0  0  0  0  0  0  0  0  0  0  0  0  0
 MicOpt= -1 -1 -1 -1 -1 -1 -1 -1 -1 -1 -1 -1 -1
 NAtoms=     13 NQM=       13 NQMF=       0 NMMI=      0 NMMIF=      0
                NMic=       0 NMicF=      0.
                    Isotopes and Nuclear Properties:
 (Nuclear quadrupole moments (NQMom) in fm**2, nuclear magnetic moments (NMagM)
  in nuclear magnetons)

  Atom         1           2           3           4           5           6           7           8           9          10
 IAtWgt=          16          16          14          12          12          12           1           1           1           1
 AtmWgt=  15.9949146  15.9949146  14.0030740  12.0000000  12.0000000  12.0000000   1.0078250   1.0078250   1.0078250   1.0078250
 NucSpn=           0           0           2           0           0           0           1           1           1           1
 AtZEff=  -0.0000000  -0.0000000  -0.0000000  -0.0000000  -0.0000000  -0.0000000  -0.0000000  -0.0000000  -0.0000000  -0.0000000
 NQMom=    0.0000000   0.0000000   2.0440000   0.0000000   0.0000000   0.0000000   0.0000000   0.0000000   0.0000000   0.0000000
 NMagM=    0.0000000   0.0000000   0.4037610   0.0000000   0.0000000   0.0000000   2.7928460   2.7928460   2.7928460   2.7928460
 AtZNuc=   8.0000000   8.0000000   7.0000000   6.0000000   6.0000000   6.0000000   1.0000000   1.0000000   1.0000000   1.0000000

  Atom        11          12          13
 IAtWgt=           1           1           1
 AtmWgt=   1.0078250   1.0078250   1.0078250
 NucSpn=           1           1           1
 AtZEff=  -0.0000000  -0.0000000  -0.0000000
 NQMom=    0.0000000   0.0000000   0.0000000
 NMagM=    2.7928460   2.7928460   2.7928460
 AtZNuc=   1.0000000   1.0000000   1.0000000
 Leave Link  101 at Tue Feb 13 18:55:14 2024, MaxMem=  3221225472 cpu:               4.3 elap:               0.5
 (Enter /opt/g16/l103.exe)

 GradGradGradGradGradGradGradGradGradGradGradGradGradGradGradGradGradGrad
 Berny optimization.
 Initialization pass.
                           ----------------------------
                           !    Initial Parameters    !
                           ! (Angstroms and Degrees)  !
 --------------------------                            --------------------------
 ! Name  Definition              Value          Derivative Info.                !
 --------------------------------------------------------------------------------
 ! R1    R(1,6)                  1.3591         estimate D2E/DX2                !
 ! R2    R(1,13)                 0.981          estimate D2E/DX2                !
 ! R3    R(2,6)                  1.2227         estimate D2E/DX2                !
 ! R4    R(3,4)                  1.4615         estimate D2E/DX2                !
 ! R5    R(3,11)                 1.0196         estimate D2E/DX2                !
 ! R6    R(3,12)                 1.0199         estimate D2E/DX2                !
 ! R7    R(4,5)                  1.5227         estimate D2E/DX2                !
 ! R8    R(4,6)                  1.5139         estimate D2E/DX2                !
 ! R9    R(4,7)                  1.095          estimate D2E/DX2                !
 ! R10   R(5,8)                  1.0956         estimate D2E/DX2                !
 ! R11   R(5,9)                  1.0957         estimate D2E/DX2                !
 ! R12   R(5,10)                 1.0962         estimate D2E/DX2                !
 ! A1    A(6,1,13)             111.8651         estimate D2E/DX2                !
 ! A2    A(4,3,11)             109.4917         estimate D2E/DX2                !
 ! A3    A(4,3,12)             109.8815         estimate D2E/DX2                !
 ! A4    A(11,3,12)            105.7649         estimate D2E/DX2                !
 ! A5    A(3,4,5)              109.7306         estimate D2E/DX2                !
 ! A6    A(3,4,6)              108.0946         estimate D2E/DX2                !
 ! A7    A(3,4,7)              108.6883         estimate D2E/DX2                !
 ! A8    A(5,4,6)              110.8161         estimate D2E/DX2                !
 ! A9    A(5,4,7)              111.0399         estimate D2E/DX2                !
 ! A10   A(6,4,7)              108.392          estimate D2E/DX2                !
 ! A11   A(4,5,8)              110.9848         estimate D2E/DX2                !
 ! A12   A(4,5,9)              111.1692         estimate D2E/DX2                !
 ! A13   A(4,5,10)             111.6138         estimate D2E/DX2                !
 ! A14   A(8,5,9)              107.4403         estimate D2E/DX2                !
 ! A15   A(8,5,10)             107.2511         estimate D2E/DX2                !
 ! A16   A(9,5,10)             108.1906         estimate D2E/DX2                !
 ! A17   A(1,6,2)              123.2246         estimate D2E/DX2                !
 ! A18   A(1,6,4)              110.3786         estimate D2E/DX2                !
 ! A19   A(2,6,4)              126.3941         estimate D2E/DX2                !
 ! D1    D(13,1,6,2)            -0.2584         estimate D2E/DX2                !
 ! D2    D(13,1,6,4)          -179.6906         estimate D2E/DX2                !
 ! D3    D(11,3,4,5)            60.1152         estimate D2E/DX2                !
 ! D4    D(11,3,4,6)          -178.9298         estimate D2E/DX2                !
 ! D5    D(11,3,4,7)           -61.4826         estimate D2E/DX2                !
 ! D6    D(12,3,4,5)           -55.6367         estimate D2E/DX2                !
 ! D7    D(12,3,4,6)            65.3183         estimate D2E/DX2                !
 ! D8    D(12,3,4,7)          -177.2346         estimate D2E/DX2                !
 ! D9    D(3,4,5,8)           -176.9764         estimate D2E/DX2                !
 ! D10   D(3,4,5,9)            -57.4537         estimate D2E/DX2                !
 ! D11   D(3,4,5,10)            63.445          estimate D2E/DX2                !
 ! D12   D(6,4,5,8)             63.7254         estimate D2E/DX2                !
 ! D13   D(6,4,5,9)           -176.7519         estimate D2E/DX2                !
 ! D14   D(6,4,5,10)           -55.8532         estimate D2E/DX2                !
 ! D15   D(7,4,5,8)            -56.7989         estimate D2E/DX2                !
 ! D16   D(7,4,5,9)             62.7238         estimate D2E/DX2                !
 ! D17   D(7,4,5,10)          -176.3775         estimate D2E/DX2                !
 ! D18   D(3,4,6,1)             -0.8674         estimate D2E/DX2                !
 ! D19   D(3,4,6,2)            179.7227         estimate D2E/DX2                !
 ! D20   D(5,4,6,1)            119.4101         estimate D2E/DX2                !
 ! D21   D(5,4,6,2)            -59.9998         estimate D2E/DX2                !
 ! D22   D(7,4,6,1)           -118.505          estimate D2E/DX2                !
 ! D23   D(7,4,6,2)             62.0851         estimate D2E/DX2                !
 --------------------------------------------------------------------------------
 Trust Radius=3.00D-01 FncErr=1.00D-07 GrdErr=1.00D-06 EigMax=2.50D+02 EigMin=1.00D-04
 Number of steps in this run=     64 maximum allowed number of steps=    100.
 GradGradGradGradGradGradGradGradGradGradGradGradGradGradGradGradGradGrad

 Leave Link  103 at Tue Feb 13 18:55:14 2024, MaxMem=  3221225472 cpu:               0.1 elap:               0.0
 (Enter /opt/g16/l202.exe)
                          Input orientation:                          
 ---------------------------------------------------------------------
 Center     Atomic      Atomic             Coordinates (Angstroms)
 Number     Number       Type             X           Y           Z
 ---------------------------------------------------------------------
      1          8           0        0.954690    1.364240   -0.394640
      2          8           0        1.633580   -0.749710    0.088380
      3          7           0       -1.410500    1.150700    0.182100
      4          6           0       -0.708500   -0.113600    0.393700
      5          6           0       -1.334500   -1.200000   -0.470200
      6          6           0        0.747000    0.090300    0.030800
      7          1           0       -0.766600   -0.373700    1.455800
      8          1           0       -0.858000   -2.169500   -0.287800
      9          1           0       -2.402300   -1.312700   -0.252100
     10          1           0       -1.224800   -0.979700   -1.538400
     11          1           0       -2.391600    1.042000    0.437600
     12          1           0       -1.407100    1.387500   -0.809900
     13          1           0        1.891670    1.519120   -0.640580
 ---------------------------------------------------------------------
                    Distance matrix (angstroms):
                    1          2          3          4          5
     1  O    0.000000
     2  O    2.272220   0.000000
     3  N    2.443840   3.589814   0.000000
     4  C    2.360443   2.446057   1.461517   0.000000
     5  C    3.438230   3.053567   2.440709   1.522650   0.000000
     6  C    1.359065   1.222684   2.408764   1.513853   2.499703
     7  H    3.067149   2.787846   2.088232   1.095027   2.171349
     8  H    3.972981   2.892280   3.398498   2.171064   1.095560
     9  H    4.296011   4.089158   2.690824   2.173444   1.095658
    10  H    3.398885   3.296914   2.744669   2.179382   1.096183
    11  H    3.463253   4.419757   1.019634   2.042098   2.639721
    12  H    2.398131   3.823651   1.019877   2.046948   2.610713
    13  H    0.981023   2.396995   3.422990   3.239814   4.222655
                    6          7          8          9         10
     6  C    0.000000
     7  H    2.130001   0.000000
     8  H    2.790023   2.504674   0.000000
     9  H    3.459268   2.544437   1.766421   0.000000
    10  H    2.737752   3.089080   1.764700   1.775377   0.000000
    11  H    3.304849   2.383603   3.632061   2.453653   3.058311
    12  H    2.651349   2.940317   3.636805   2.931321   2.483462
    13  H    1.950012   3.878656   4.614223   5.158323   4.094211
                   11         12         13
    11  H    0.000000
    12  H    1.626305   0.000000
    13  H    4.442580   3.305734   0.000000
 Stoichiometry    C3H7NO2
 Framework group  C1[X(C3H7NO2)]
 Deg. of freedom    33
 Full point group                 C1      NOp   1
 Largest Abelian subgroup         C1      NOp   1
 Largest concise Abelian subgroup C1      NOp   1
                         Standard orientation:                         
 ---------------------------------------------------------------------
 Center     Atomic      Atomic             Coordinates (Angstroms)
 Number     Number       Type             X           Y           Z
 ---------------------------------------------------------------------
      1          8           0       -1.240888    1.070787    0.325426
      2          8           0       -1.551676   -1.119678   -0.192509
      3          7           0        1.135752    1.260268   -0.211259
      4          6           0        0.656827   -0.099924   -0.449044
      5          6           0        1.440761   -1.079172    0.414082
      6          6           0       -0.817880   -0.145156   -0.110009
      7          1           0        0.774092   -0.332274   -1.512691
      8          1           0        1.134774   -2.111681    0.212711
      9          1           0        2.515767   -1.010273    0.213879
     10          1           0        1.279129   -0.894707    1.482475
     11          1           0        2.125199    1.319246   -0.450358
     12          1           0        1.077398    1.479669    0.783029
     13          1           0       -2.194349    1.064791    0.556256
 ---------------------------------------------------------------------
 Rotational constants (GHZ):           5.0822898           3.3046139           2.2376817
 Leave Link  202 at Tue Feb 13 18:55:14 2024, MaxMem=  3221225472 cpu:               0.0 elap:               0.0
 (Enter /opt/g16/l301.exe)
 Standard basis: def2TZVP (5D, 7F)
 Ernie: Thresh=  0.10000D-02 Tol=  0.10000D-05 Strict=F.
 There are   258 symmetry adapted cartesian basis functions of A   symmetry.
 There are   228 symmetry adapted basis functions of A   symmetry.
   228 basis functions,   362 primitive gaussians,   258 cartesian basis functions
    24 alpha electrons       24 beta electrons
       nuclear repulsion energy       250.1423421437 Hartrees.
 IExCor= 4336 DFT=T Ex+Corr=M062X ExCW=0 ScaHFX=  0.540000
 ScaDFX=  1.000000  1.000000  1.000000  1.000000 ScalE2=  1.000000  1.000000
 IRadAn=      5 IRanWt=     -1 IRanGd=            0 ICorTp=0 IEmpDi=  4
 NAtoms=   13 NActive=   13 NUniq=   13 SFac= 1.00D+00 NAtFMM=   60 NAOKFM=F Big=F
 Integral buffers will be    131072 words long.
 Raffenetti 2 integral format.
 Two-electron integral symmetry is turned on.
 Leave Link  301 at Tue Feb 13 18:55:14 2024, MaxMem=  3221225472 cpu:               0.4 elap:               0.1
 (Enter /opt/g16/l302.exe)
 NPDir=0 NMtPBC=     1 NCelOv=     1 NCel=       1 NClECP=     1 NCelD=      1
         NCelK=      1 NCelE2=     1 NClLst=     1 CellRange=     0.0.
 One-electron integrals computed using PRISM.
 One-electron integral symmetry used in STVInt
   1 Symmetry operations used in ECPInt.
 ECPInt:  NShTT=    4465 NPrTT=   13356 LenC2=    4421 LenP2D=   10965.
 LDataN:  DoStor=T MaxTD1= 6 Len=  172
 NBasis=   228 RedAO= T EigKep=  2.09D-04  NBF=   228
 NBsUse=   228 1.00D-06 EigRej= -1.00D+00 NBFU=   228
 Precomputing XC quadrature grid using
 IXCGrd= 4 IRadAn=           5 IRanWt=          -1 IRanGd=           0 AccXCQ= 0.00D+00.
 Generated NRdTot=       0 NPtTot=           0 NUsed=           0 NTot=          32
 NSgBfM=   257   257   257   257   257 MxSgAt=    13 MxSgA2=    13.
 Leave Link  302 at Tue Feb 13 18:55:14 2024, MaxMem=  3221225472 cpu:               1.8 elap:               0.2
 (Enter /opt/g16/l303.exe)
 DipDrv:  MaxL=1.
 Leave Link  303 at Tue Feb 13 18:55:14 2024, MaxMem=  3221225472 cpu:               0.3 elap:               0.0
 (Enter /opt/g16/l401.exe)
 ExpMin= 9.52D-02 ExpMax= 2.70D+04 ExpMxC= 9.22D+02 IAcc=3 IRadAn=         5 AccDes= 0.00D+00
 Harris functional with IExCor= 1009 and IRadAn=       5 diagonalized for initial guess.
 HarFok:  IExCor= 1009 AccDes= 0.00D+00 IRadAn=         5 IDoV= 1 UseB2=F ITyADJ=14
 ICtDFT=  3500011 ScaDFX=  1.000000  1.000000  1.000000  1.000000
 FoFCou: FMM=F IPFlag=           0 FMFlag=      100000 FMFlg1=           0
         NFxFlg=           0 DoJE=T BraDBF=F KetDBF=T FulRan=T
         wScrn=  0.000000 ICntrl=       500 IOpCl=  0 I1Cent=   200000004 NGrid=           0
         NMat0=    1 NMatS0=      1 NMatT0=    0 NMatD0=    1 NMtDS0=    0 NMtDT0=    0
 Petite list used in FoFCou.
 Harris En= -323.613213276676    
 JPrj=0 DoOrth=F DoCkMO=F.
 Leave Link  401 at Tue Feb 13 18:55:15 2024, MaxMem=  3221225472 cpu:               5.7 elap:               0.7
 (Enter /opt/g16/l502.exe)
 Integral symmetry usage will be decided dynamically.
 Closed shell SCF:
 Using DIIS extrapolation, IDIIS=  1040.
 NGot=  3221225472 LenX=  3221087835 LenY=  3221020830
 Requested convergence on RMS density matrix=1.00D-08 within 128 cycles.
 Requested convergence on MAX density matrix=1.00D-06.
 Requested convergence on             energy=1.00D-06.
 No special actions if energy rises.
 Fock matrices will be formed incrementally for  20 cycles.
 Integral accuracy reduced to 1.0D-05 until final iterations.

 Cycle   1  Pass 0  IDiag  1:
 FoFJK:  IHMeth= 1 ICntrl=       0 DoSepK=F KAlg= 0 I1Cent=           0 FoldK=F
 IRaf= 980000000 NMat=       1 IRICut=       1 DoRegI=T DoRafI=F ISym2E= 0 IDoP0=0 IntGTp=1.
 FoFCou: FMM=F IPFlag=           0 FMFlag=      100000 FMFlg1=           0
         NFxFlg=           0 DoJE=F BraDBF=F KetDBF=F FulRan=T
         wScrn=  0.000000 ICntrl=         0 IOpCl=  0 I1Cent=           0 NGrid=           0
         NMat0=    1 NMatS0=      1 NMatT0=    0 NMatD0=    1 NMtDS0=    0 NMtDT0=    0
 Symmetry not used in FoFCou.
 E= -323.517802689749    
 DIIS: error= 2.32D-02 at cycle   1 NSaved=   1.
 NSaved= 1 IEnMin= 1 EnMin= -323.517802689749     IErMin= 1 ErrMin= 2.32D-02
 ErrMax= 2.32D-02  0.00D+00 EMaxC= 1.00D-01 BMatC= 3.10D-01 BMatP= 3.10D-01
 IDIUse=3 WtCom= 7.68D-01 WtEn= 2.32D-01
 Coeff-Com:  0.100D+01
 Coeff-En:   0.100D+01
 Coeff:      0.100D+01
 Gap=     0.269 Goal=   None    Shift=    0.000
 GapD=    0.269 DampG=1.000 DampE=0.500 DampFc=0.5000 IDamp=-1.
 Damping current iteration by 5.00D-01
 RMSDP=4.81D-03 MaxDP=4.05D-01              OVMax= 1.82D-01

 Cycle   2  Pass 0  IDiag  1:
 RMSU=  2.40D-03    CP:  9.89D-01
 E= -323.620253325342     Delta-E=       -0.102450635593 Rises=F Damp=T
 DIIS: error= 6.02D-03 at cycle   2 NSaved=   2.
 NSaved= 2 IEnMin= 2 EnMin= -323.620253325342     IErMin= 2 ErrMin= 6.02D-03
 ErrMax= 6.02D-03  0.00D+00 EMaxC= 1.00D-01 BMatC= 2.21D-02 BMatP= 3.10D-01
 IDIUse=3 WtCom= 9.40D-01 WtEn= 6.02D-02
 Coeff-Com:  0.415D-02 0.996D+00
 Coeff-En:   0.238D-01 0.976D+00
 Coeff:      0.533D-02 0.995D+00
 Gap=     0.353 Goal=   None    Shift=    0.000
 RMSDP=1.05D-03 MaxDP=7.17D-02 DE=-1.02D-01 OVMax= 1.04D-01

 Cycle   3  Pass 0  IDiag  1:
 RMSU=  9.37D-04    CP:  9.84D-01  8.02D-01
 E= -323.727783452160     Delta-E=       -0.107530126818 Rises=F Damp=F
 DIIS: error= 3.60D-03 at cycle   3 NSaved=   3.
 NSaved= 3 IEnMin= 3 EnMin= -323.727783452160     IErMin= 3 ErrMin= 3.60D-03
 ErrMax= 3.60D-03  0.00D+00 EMaxC= 1.00D-01 BMatC= 9.74D-03 BMatP= 2.21D-02
 IDIUse=3 WtCom= 9.64D-01 WtEn= 3.60D-02
 Coeff-Com: -0.540D-01 0.389D+00 0.665D+00
 Coeff-En:   0.000D+00 0.000D+00 0.100D+01
 Coeff:     -0.521D-01 0.375D+00 0.677D+00
 Gap=     0.350 Goal=   None    Shift=    0.000
 RMSDP=4.15D-04 MaxDP=1.56D-02 DE=-1.08D-01 OVMax= 4.34D-02

 Cycle   4  Pass 0  IDiag  1:
 RMSU=  4.06D-04    CP:  9.84D-01  8.02D-01  9.12D-01
 E= -323.732450050880     Delta-E=       -0.004666598720 Rises=F Damp=F
 DIIS: error= 2.13D-03 at cycle   4 NSaved=   4.
 NSaved= 4 IEnMin= 4 EnMin= -323.732450050880     IErMin= 4 ErrMin= 2.13D-03
 ErrMax= 2.13D-03  0.00D+00 EMaxC= 1.00D-01 BMatC= 3.32D-03 BMatP= 9.74D-03
 IDIUse=3 WtCom= 9.79D-01 WtEn= 2.13D-02
 Coeff-Com: -0.262D-01 0.714D-01 0.395D+00 0.559D+00
 Coeff-En:   0.000D+00 0.000D+00 0.266D+00 0.734D+00
 Coeff:     -0.256D-01 0.699D-01 0.393D+00 0.563D+00
 Gap=     0.344 Goal=   None    Shift=    0.000
 RMSDP=2.00D-04 MaxDP=5.46D-03 DE=-4.67D-03 OVMax= 1.46D-02

 Cycle   5  Pass 0  IDiag  1:
 RMSU=  8.32D-05    CP:  9.83D-01  8.00D-01  9.73D-01  5.76D-01
 E= -323.734804651780     Delta-E=       -0.002354600900 Rises=F Damp=F
 DIIS: error= 3.28D-04 at cycle   5 NSaved=   5.
 NSaved= 5 IEnMin= 5 EnMin= -323.734804651780     IErMin= 5 ErrMin= 3.28D-04
 ErrMax= 3.28D-04  0.00D+00 EMaxC= 1.00D-01 BMatC= 8.08D-05 BMatP= 3.32D-03
 IDIUse=3 WtCom= 9.97D-01 WtEn= 3.28D-03
 Coeff-Com: -0.818D-02 0.145D-01 0.147D+00 0.249D+00 0.597D+00
 Coeff-En:   0.000D+00 0.000D+00 0.000D+00 0.000D+00 0.100D+01
 Coeff:     -0.815D-02 0.145D-01 0.147D+00 0.248D+00 0.599D+00
 Gap=     0.346 Goal=   None    Shift=    0.000
 RMSDP=3.54D-05 MaxDP=9.27D-04 DE=-2.35D-03 OVMax= 2.68D-03

 Cycle   6  Pass 0  IDiag  1:
 RMSU=  2.29D-05    CP:  9.83D-01  8.01D-01  9.78D-01  6.18D-01  7.55D-01
 E= -323.734865869498     Delta-E=       -0.000061217718 Rises=F Damp=F
 DIIS: error= 1.22D-04 at cycle   6 NSaved=   6.
 NSaved= 6 IEnMin= 6 EnMin= -323.734865869498     IErMin= 6 ErrMin= 1.22D-04
 ErrMax= 1.22D-04  0.00D+00 EMaxC= 1.00D-01 BMatC= 5.94D-06 BMatP= 8.08D-05
 IDIUse=3 WtCom= 9.99D-01 WtEn= 1.22D-03
 Coeff-Com: -0.528D-03-0.120D-02 0.197D-01 0.382D-01 0.234D+00 0.710D+00
 Coeff-En:   0.000D+00 0.000D+00 0.000D+00 0.000D+00 0.000D+00 0.100D+01
 Coeff:     -0.527D-03-0.120D-02 0.197D-01 0.381D-01 0.233D+00 0.711D+00
 Gap=     0.346 Goal=   None    Shift=    0.000
 RMSDP=1.64D-05 MaxDP=9.05D-04 DE=-6.12D-05 OVMax= 5.76D-04

 Cycle   7  Pass 0  IDiag  1:
 RMSU=  9.46D-06    CP:  9.83D-01  7.96D-01  9.84D-01  6.16D-01  8.44D-01
                    CP:  9.33D-01
 E= -323.734871084949     Delta-E=       -0.000005215451 Rises=F Damp=F
 DIIS: error= 2.76D-05 at cycle   7 NSaved=   7.
 NSaved= 7 IEnMin= 7 EnMin= -323.734871084949     IErMin= 7 ErrMin= 2.76D-05
 ErrMax= 2.76D-05  0.00D+00 EMaxC= 1.00D-01 BMatC= 4.18D-07 BMatP= 5.94D-06
 IDIUse=1 WtCom= 1.00D+00 WtEn= 0.00D+00
 Coeff-Com:  0.937D-03-0.228D-02-0.114D-01-0.212D-01-0.422D-02 0.157D+00
 Coeff-Com:  0.881D+00
 Coeff:      0.937D-03-0.228D-02-0.114D-01-0.212D-01-0.422D-02 0.157D+00
 Coeff:      0.881D+00
 Gap=     0.346 Goal=   None    Shift=    0.000
 RMSDP=7.32D-06 MaxDP=4.89D-04 DE=-5.22D-06 OVMax= 3.51D-04

 Initial convergence to 1.0D-05 achieved.  Increase integral accuracy.
 Cycle   8  Pass 1  IDiag  1:
 E= -323.734877761645     Delta-E=       -0.000006676696 Rises=F Damp=F
 DIIS: error= 1.60D-05 at cycle   1 NSaved=   1.
 NSaved= 1 IEnMin= 1 EnMin= -323.734877761645     IErMin= 1 ErrMin= 1.60D-05
 ErrMax= 1.60D-05  0.00D+00 EMaxC= 1.00D-01 BMatC= 2.19D-07 BMatP= 2.19D-07
 IDIUse=1 WtCom= 1.00D+00 WtEn= 0.00D+00
 Coeff-Com:  0.100D+01
 Coeff:      0.100D+01
 Gap=     0.346 Goal=   None    Shift=    0.000
 RMSDP=7.32D-06 MaxDP=4.89D-04 DE=-6.68D-06 OVMax= 1.29D-04

 Cycle   9  Pass 1  IDiag  1:
 RMSU=  7.07D-06    CP:  1.00D+00
 E= -323.734877890459     Delta-E=       -0.000000128814 Rises=F Damp=F
 DIIS: error= 1.30D-05 at cycle   2 NSaved=   2.
 NSaved= 2 IEnMin= 2 EnMin= -323.734877890459     IErMin= 2 ErrMin= 1.30D-05
 ErrMax= 1.30D-05  0.00D+00 EMaxC= 1.00D-01 BMatC= 7.43D-08 BMatP= 2.19D-07
 IDIUse=1 WtCom= 1.00D+00 WtEn= 0.00D+00
 Coeff-Com:  0.320D+00 0.680D+00
 Coeff:      0.320D+00 0.680D+00
 Gap=     0.346 Goal=   None    Shift=    0.000
 RMSDP=1.22D-06 MaxDP=3.94D-05 DE=-1.29D-07 OVMax= 1.22D-04

 Cycle  10  Pass 1  IDiag  1:
 RMSU=  1.22D-06    CP:  1.00D+00  1.02D+00
 E= -323.734877933945     Delta-E=       -0.000000043486 Rises=F Damp=F
 DIIS: error= 8.48D-06 at cycle   3 NSaved=   3.
 NSaved= 3 IEnMin= 3 EnMin= -323.734877933945     IErMin= 3 ErrMin= 8.48D-06
 ErrMax= 8.48D-06  0.00D+00 EMaxC= 1.00D-01 BMatC= 2.69D-08 BMatP= 7.43D-08
 IDIUse=1 WtCom= 1.00D+00 WtEn= 0.00D+00
 Coeff-Com: -0.678D-02 0.366D+00 0.641D+00
 Coeff:     -0.678D-02 0.366D+00 0.641D+00
 Gap=     0.346 Goal=   None    Shift=    0.000
 RMSDP=7.90D-07 MaxDP=3.19D-05 DE=-4.35D-08 OVMax= 4.22D-05

 Cycle  11  Pass 1  IDiag  1:
 RMSU=  6.25D-07    CP:  1.00D+00  1.08D+00  8.34D-01
 E= -323.734877951655     Delta-E=       -0.000000017711 Rises=F Damp=F
 DIIS: error= 1.85D-06 at cycle   4 NSaved=   4.
 NSaved= 4 IEnMin= 4 EnMin= -323.734877951655     IErMin= 4 ErrMin= 1.85D-06
 ErrMax= 1.85D-06  0.00D+00 EMaxC= 1.00D-01 BMatC= 2.13D-09 BMatP= 2.69D-08
 IDIUse=1 WtCom= 1.00D+00 WtEn= 0.00D+00
 Coeff-Com: -0.247D-01 0.145D+00 0.309D+00 0.570D+00
 Coeff:     -0.247D-01 0.145D+00 0.309D+00 0.570D+00
 Gap=     0.346 Goal=   None    Shift=    0.000
 RMSDP=1.59D-07 MaxDP=7.91D-06 DE=-1.77D-08 OVMax= 2.37D-05

 Cycle  12  Pass 1  IDiag  1:
 RMSU=  1.49D-07    CP:  1.00D+00  1.08D+00  8.42D-01  9.11D-01
 E= -323.734877953509     Delta-E=       -0.000000001853 Rises=F Damp=F
 DIIS: error= 7.31D-07 at cycle   5 NSaved=   5.
 NSaved= 5 IEnMin= 5 EnMin= -323.734877953509     IErMin= 5 ErrMin= 7.31D-07
 ErrMax= 7.31D-07  0.00D+00 EMaxC= 1.00D-01 BMatC= 2.73D-10 BMatP= 2.13D-09
 IDIUse=1 WtCom= 1.00D+00 WtEn= 0.00D+00
 Coeff-Com: -0.416D-02-0.307D-01-0.733D-01 0.177D+00 0.931D+00
 Coeff:     -0.416D-02-0.307D-01-0.733D-01 0.177D+00 0.931D+00
 Gap=     0.346 Goal=   None    Shift=    0.000
 RMSDP=1.48D-07 MaxDP=5.95D-06 DE=-1.85D-09 OVMax= 7.78D-06

 Cycle  13  Pass 1  IDiag  1:
 RMSU=  5.02D-08    CP:  1.00D+00  1.09D+00  8.64D-01  1.10D+00  1.09D+00
 E= -323.734877953812     Delta-E=       -0.000000000303 Rises=F Damp=F
 DIIS: error= 2.40D-07 at cycle   6 NSaved=   6.
 NSaved= 6 IEnMin= 6 EnMin= -323.734877953812     IErMin= 6 ErrMin= 2.40D-07
 ErrMax= 2.40D-07  0.00D+00 EMaxC= 1.00D-01 BMatC= 3.96D-11 BMatP= 2.73D-10
 IDIUse=1 WtCom= 1.00D+00 WtEn= 0.00D+00
 Coeff-Com:  0.225D-02-0.371D-01-0.888D-01 0.187D-02 0.432D+00 0.690D+00
 Coeff:      0.225D-02-0.371D-01-0.888D-01 0.187D-02 0.432D+00 0.690D+00
 Gap=     0.346 Goal=   None    Shift=    0.000
 RMSDP=4.55D-08 MaxDP=2.42D-06 DE=-3.03D-10 OVMax= 3.19D-06

 Cycle  14  Pass 1  IDiag  1:
 RMSU=  2.30D-08    CP:  1.00D+00  1.09D+00  8.63D-01  1.16D+00  1.19D+00
                    CP:  9.64D-01
 E= -323.734877953854     Delta-E=       -0.000000000042 Rises=F Damp=F
 DIIS: error= 4.15D-08 at cycle   7 NSaved=   7.
 NSaved= 7 IEnMin= 7 EnMin= -323.734877953854     IErMin= 7 ErrMin= 4.15D-08
 ErrMax= 4.15D-08  0.00D+00 EMaxC= 1.00D-01 BMatC= 1.44D-12 BMatP= 3.96D-11
 IDIUse=1 WtCom= 1.00D+00 WtEn= 0.00D+00
 Coeff-Com:  0.872D-03-0.889D-02-0.216D-01-0.948D-02 0.608D-01 0.206D+00
 Coeff-Com:  0.773D+00
 Coeff:      0.872D-03-0.889D-02-0.216D-01-0.948D-02 0.608D-01 0.206D+00
 Coeff:      0.773D+00
 Gap=     0.346 Goal=   None    Shift=    0.000
 RMSDP=9.17D-09 MaxDP=6.41D-07 DE=-4.22D-11 OVMax= 4.87D-07

 SCF Done:  E(RM062X) =  -323.734877954     A.U. after   14 cycles
            NFock= 14  Conv=0.92D-08     -V/T= 2.0049
 KE= 3.221426523678D+02 PE=-1.258435043421D+03 EE= 3.624151709560D+02
 Leave Link  502 at Tue Feb 13 18:55:39 2024, MaxMem=  3221225472 cpu:             189.9 elap:              23.7
 (Enter /opt/g16/l601.exe)
 Copying SCF densities to generalized density rwf, IOpCl= 0 IROHF=0.

 **********************************************************************

            Population analysis using the SCF density.

 **********************************************************************

 Orbital symmetries:
       Occupied  (A) (A) (A) (A) (A) (A) (A) (A) (A) (A) (A) (A)
                 (A) (A) (A) (A) (A) (A) (A) (A) (A) (A) (A) (A)
       Virtual   (A) (A) (A) (A) (A) (A) (A) (A) (A) (A) (A) (A)
                 (A) (A) (A) (A) (A) (A) (A) (A) (A) (A) (A) (A)
                 (A) (A) (A) (A) (A) (A) (A) (A) (A) (A) (A) (A)
                 (A) (A) (A) (A) (A) (A) (A) (A) (A) (A) (A) (A)
                 (A) (A) (A) (A) (A) (A) (A) (A) (A) (A) (A) (A)
                 (A) (A) (A) (A) (A) (A) (A) (A) (A) (A) (A) (A)
                 (A) (A) (A) (A) (A) (A) (A) (A) (A) (A) (A) (A)
                 (A) (A) (A) (A) (A) (A) (A) (A) (A) (A) (A) (A)
                 (A) (A) (A) (A) (A) (A) (A) (A) (A) (A) (A) (A)
                 (A) (A) (A) (A) (A) (A) (A) (A) (A) (A) (A) (A)
                 (A) (A) (A) (A) (A) (A) (A) (A) (A) (A) (A) (A)
                 (A) (A) (A) (A) (A) (A) (A) (A) (A) (A) (A) (A)
                 (A) (A) (A) (A) (A) (A) (A) (A) (A) (A) (A) (A)
                 (A) (A) (A) (A) (A) (A) (A) (A) (A) (A) (A) (A)
                 (A) (A) (A) (A) (A) (A) (A) (A) (A) (A) (A) (A)
                 (A) (A) (A) (A) (A) (A) (A) (A) (A) (A) (A) (A)
                 (A) (A) (A) (A) (A) (A) (A) (A) (A) (A) (A) (A)
 The electronic state is 1-A.
 Alpha  occ. eigenvalues --  -19.67488 -19.62150 -14.73162 -10.68227 -10.59047
 Alpha  occ. eigenvalues --  -10.54045  -1.22879  -1.13574  -1.00916  -0.84853
 Alpha  occ. eigenvalues --   -0.77163  -0.68381  -0.60076  -0.57931  -0.54960
 Alpha  occ. eigenvalues --   -0.52552  -0.49951  -0.48828  -0.47853  -0.44782
 Alpha  occ. eigenvalues --   -0.43698  -0.39639  -0.36074  -0.31336
 Alpha virt. eigenvalues --    0.03296   0.05576   0.07656   0.09854   0.10781
 Alpha virt. eigenvalues --    0.12235   0.15295   0.16839   0.18016   0.18761
 Alpha virt. eigenvalues --    0.20797   0.24448   0.26707   0.27647   0.28480
 Alpha virt. eigenvalues --    0.29946   0.31658   0.35161   0.35560   0.38866
 Alpha virt. eigenvalues --    0.39252   0.40232   0.41591   0.42860   0.45070
 Alpha virt. eigenvalues --    0.46373   0.46726   0.48998   0.49859   0.51914
 Alpha virt. eigenvalues --    0.52897   0.53892   0.55363   0.56215   0.58924
 Alpha virt. eigenvalues --    0.60965   0.62011   0.63305   0.66277   0.68413
 Alpha virt. eigenvalues --    0.70018   0.79829   0.81073   0.82760   0.86212
 Alpha virt. eigenvalues --    0.87923   0.91191   0.95801   0.95968   0.98148
 Alpha virt. eigenvalues --    1.01890   1.05080   1.08055   1.11466   1.12780
 Alpha virt. eigenvalues --    1.15615   1.17452   1.22889   1.30295   1.34813
 Alpha virt. eigenvalues --    1.37519   1.39484   1.41761   1.46835   1.49117
 Alpha virt. eigenvalues --    1.51032   1.52902   1.56231   1.57535   1.58865
 Alpha virt. eigenvalues --    1.60397   1.62693   1.66626   1.68615   1.71206
 Alpha virt. eigenvalues --    1.74692   1.76608   1.78503   1.79071   1.84739
 Alpha virt. eigenvalues --    1.90906   1.92251   1.96662   1.98207   2.00257
 Alpha virt. eigenvalues --    2.02060   2.04111   2.05860   2.08085   2.12345
 Alpha virt. eigenvalues --    2.15273   2.18349   2.20090   2.22794   2.25267
 Alpha virt. eigenvalues --    2.27577   2.30081   2.33714   2.34981   2.37318
 Alpha virt. eigenvalues --    2.39662   2.41022   2.43804   2.49699   2.52035
 Alpha virt. eigenvalues --    2.55768   2.59651   2.60922   2.63686   2.68414
 Alpha virt. eigenvalues --    2.71051   2.73998   2.77053   2.79844   2.80793
 Alpha virt. eigenvalues --    2.85178   2.86594   2.92333   2.93615   2.96014
 Alpha virt. eigenvalues --    2.97584   3.00034   3.06275   3.07467   3.10527
 Alpha virt. eigenvalues --    3.11880   3.13696   3.14064   3.18209   3.21128
 Alpha virt. eigenvalues --    3.27699   3.30093   3.30316   3.36256   3.36782
 Alpha virt. eigenvalues --    3.37954   3.39457   3.42437   3.43215   3.47013
 Alpha virt. eigenvalues --    3.51717   3.56214   3.63460   3.65212   3.76501
 Alpha virt. eigenvalues --    3.82713   3.86089   3.89529   3.91310   3.94011
 Alpha virt. eigenvalues --    3.96491   4.06296   4.10648   4.17316   4.25721
 Alpha virt. eigenvalues --    4.29301   4.33222   4.38141   4.43833   4.49010
 Alpha virt. eigenvalues --    4.50909   4.53851   4.68142   4.70185   4.77870
 Alpha virt. eigenvalues --    4.84461   4.87861   4.92243   5.08862   5.16136
 Alpha virt. eigenvalues --    5.16528   5.20589   5.21245   5.23129   5.27164
 Alpha virt. eigenvalues --    5.34673   5.39371   5.48873   5.51875   5.59655
 Alpha virt. eigenvalues --    5.70262   5.79137   5.86931   5.91716   6.12071
 Alpha virt. eigenvalues --    6.20949   6.31813   6.34137   6.44102   6.45971
 Alpha virt. eigenvalues --    6.61843   6.68907   6.75499   6.81467   6.90418
 Alpha virt. eigenvalues --    7.05774   7.08342   7.29634  22.42313  22.64899
 Alpha virt. eigenvalues --   23.25421  32.13478  43.92604  44.00136
          Condensed to atoms (all electrons):
               1          2          3          4          5          6
     1  O    7.941242  -0.089022  -0.012002  -0.109783  -0.002070   0.381436
     2  O   -0.089022   7.835129   0.005769  -0.095747   0.004184   0.675373
     3  N   -0.012002   0.005769   6.698989   0.184202  -0.075031  -0.017678
     4  C   -0.109783  -0.095747   0.184202   5.390408   0.337278   0.148618
     5  C   -0.002070   0.004184  -0.075031   0.337278   5.054492  -0.036085
     6  C    0.381436   0.675373  -0.017678   0.148618  -0.036085   4.540891
     7  H    0.002506   0.001583  -0.028092   0.413249  -0.053330  -0.027023
     8  H    0.000493   0.005114   0.014796  -0.062404   0.399361   0.003812
     9  H   -0.000259  -0.000001  -0.002297  -0.057809   0.428249   0.011355
    10  H    0.001532  -0.000519  -0.004157  -0.007422   0.383039  -0.013520
    11  H    0.000295  -0.000328   0.377654  -0.070912   0.004212   0.014937
    12  H    0.002838   0.000169   0.371792  -0.032751  -0.005373  -0.016023
    13  H    0.285240   0.004659  -0.000251   0.020475  -0.000596  -0.027266
               7          8          9         10         11         12
     1  O    0.002506   0.000493  -0.000259   0.001532   0.000295   0.002838
     2  O    0.001583   0.005114  -0.000001  -0.000519  -0.000328   0.000169
     3  N   -0.028092   0.014796  -0.002297  -0.004157   0.377654   0.371792
     4  C    0.413249  -0.062404  -0.057809  -0.007422  -0.070912  -0.032751
     5  C   -0.053330   0.399361   0.428249   0.383039   0.004212  -0.005373
     6  C   -0.027023   0.003812   0.011355  -0.013520   0.014937  -0.016023
     7  H    0.535041   0.000222  -0.005926   0.007545  -0.008773   0.008439
     8  H    0.000222   0.522344  -0.021660  -0.018940   0.000402   0.000525
     9  H   -0.005926  -0.021660   0.531344  -0.028931   0.002426  -0.000644
    10  H    0.007545  -0.018940  -0.028931   0.535294  -0.000757   0.004720
    11  H   -0.008773   0.000402   0.002426  -0.000757   0.493081  -0.035207
    12  H    0.008439   0.000525  -0.000644   0.004720  -0.035207   0.464031
    13  H   -0.000591  -0.000086   0.000044  -0.000187   0.000071  -0.000751
              13
     1  O    0.285240
     2  O    0.004659
     3  N   -0.000251
     4  C    0.020475
     5  C   -0.000596
     6  C   -0.027266
     7  H   -0.000591
     8  H   -0.000086
     9  H    0.000044
    10  H   -0.000187
    11  H    0.000071
    12  H   -0.000751
    13  H    0.380906
 Mulliken charges:
               1
     1  O   -0.402444
     2  O   -0.346361
     3  N   -0.513694
     4  C   -0.057400
     5  C   -0.438328
     6  C    0.361174
     7  H    0.155151
     8  H    0.156021
     9  H    0.144109
    10  H    0.142305
    11  H    0.222899
    12  H    0.238235
    13  H    0.338332
 Sum of Mulliken charges =  -0.00000
 Mulliken charges with hydrogens summed into heavy atoms:
               1
     1  O   -0.064112
     2  O   -0.346361
     3  N   -0.052559
     4  C    0.097751
     5  C    0.004107
     6  C    0.361174
 Electronic spatial extent (au):  <R**2>=            574.7112
 Charge=             -0.0000 electrons
 Dipole moment (field-independent basis, Debye):
    X=              1.7775    Y=              0.7437    Z=              1.0160  Tot=              2.1782
 Quadrupole moment (field-independent basis, Debye-Ang):
   XX=            -31.3958   YY=            -41.9228   ZZ=            -34.7844
   XY=             -4.6950   XZ=             -1.9221   YZ=              1.9663
 Traceless Quadrupole moment (field-independent basis, Debye-Ang):
   XX=              4.6385   YY=             -5.8884   ZZ=              1.2499
   XY=             -4.6950   XZ=             -1.9221   YZ=              1.9663
 Octapole moment (field-independent basis, Debye-Ang**2):
  XXX=             -8.0476  YYY=             -0.0173  ZZZ=              0.5003  XYY=              1.1005
  XXY=             17.5154  XXZ=              3.3411  XZZ=             -2.3514  YZZ=              1.5193
  YYZ=              5.2224  XYZ=              0.3902
 Hexadecapole moment (field-independent basis, Debye-Ang**3):
 XXXX=           -337.2534 YYYY=           -270.0828 ZZZZ=            -72.0814 XXXY=            -17.3048
 XXXZ=            -20.6866 YYYX=             -5.2166 YYYZ=             11.0370 ZZZX=             -3.0194
 ZZZY=              5.3997 XXYY=           -102.5596 XXZZ=            -74.1697 YYZZ=            -56.3778
 XXYZ=              4.4358 YYXZ=             -1.0903 ZZXY=              0.1364
 N-N= 2.501423421437D+02 E-N=-1.258435052408D+03  KE= 3.221426523678D+02
 No NMR shielding tensors so no spin-rotation constants.
 Leave Link  601 at Tue Feb 13 18:55:39 2024, MaxMem=  3221225472 cpu:               1.4 elap:               0.2
 (Enter /opt/g16/l701.exe)
 ... and contract with generalized density number  0.
 Compute integral first derivatives.
   1 Symmetry operations used in ECPInt.
 ECPInt:  NShTT=    4465 NPrTT=   13356 LenC2=    4421 LenP2D=   10965.
 LDataN:  DoStor=T MaxTD1= 7 Len=  274
 Leave Link  701 at Tue Feb 13 18:55:39 2024, MaxMem=  3221225472 cpu:               1.5 elap:               0.2
 (Enter /opt/g16/l702.exe)
 L702 exits ... SP integral derivatives will be done elsewhere.
 Leave Link  702 at Tue Feb 13 18:55:39 2024, MaxMem=  3221225472 cpu:               0.2 elap:               0.0
 (Enter /opt/g16/l703.exe)
 Integral derivatives from FoFJK, PRISM(SPDF).
 Compute integral first derivatives, UseDBF=F ICtDFT=           0.
 Calling FoFJK, ICntrl=      2127 FMM=F ISym2X=0 I1Cent= 0 IOpClX= 0 NMat=1 NMatS=1 NMatT=0.
 FoFJK:  IHMeth= 1 ICntrl=    2127 DoSepK=F KAlg= 0 I1Cent=           0 FoldK=F
 IRaf=         0 NMat=       1 IRICut=       1 DoRegI=T DoRafI=F ISym2E= 0 IDoP0=0 IntGTp=1.
 FoFCou: FMM=F IPFlag=           0 FMFlag=      100000 FMFlg1=         800
         NFxFlg=           0 DoJE=F BraDBF=F KetDBF=F FulRan=T
         wScrn=  0.000000 ICntrl=      2127 IOpCl=  0 I1Cent=           0 NGrid=           0
         NMat0=    1 NMatS0=      1 NMatT0=    0 NMatD0=    1 NMtDS0=    0 NMtDT0=    0
 Symmetry not used in FoFCou.
 Leave Link  703 at Tue Feb 13 18:55:46 2024, MaxMem=  3221225472 cpu:              58.0 elap:               7.3
 (Enter /opt/g16/l716.exe)
 Dipole        = 6.99304168D-01 2.92592577D-01 3.99729713D-01
 ***** Axes restored to original set *****
 -------------------------------------------------------------------
 Center     Atomic                   Forces (Hartrees/Bohr)
 Number     Number              X              Y              Z
 -------------------------------------------------------------------
      1        8           0.013786741   -0.008591134   -0.002237819
      2        8          -0.032287078    0.026850462   -0.001529649
      3        7          -0.013315037    0.004807959    0.006628855
      4        6          -0.013871700    0.011377859   -0.012581888
      5        6           0.006313973   -0.020572064    0.000333128
      6        6           0.037564170   -0.008730065   -0.001801634
      7        1           0.002224472   -0.000399434   -0.002878311
      8        1          -0.000761666    0.001570201   -0.001476275
      9        1           0.003987176    0.003135782    0.000962912
     10        1           0.000122798    0.002324379    0.003698388
     11        1           0.005164869   -0.000850438    0.000054780
     12        1           0.002482967   -0.000103253    0.005542841
     13        1          -0.011411685   -0.010820255    0.005284672
 -------------------------------------------------------------------
 Cartesian Forces:  Max     0.037564170 RMS     0.011454238
 Leave Link  716 at Tue Feb 13 18:55:47 2024, MaxMem=  3221225472 cpu:               0.3 elap:               0.0
 (Enter /opt/g16/l103.exe)

 GradGradGradGradGradGradGradGradGradGradGradGradGradGradGradGradGradGrad
 Berny optimization.
 FormGI is forming the generalized inverse of G from B-inverse, IUseBI=4.
 Internal  Forces:  Max     0.041930527 RMS     0.009214459
 Search for a local minimum.
 Step number   1 out of a maximum of   64
 All quantities printed in internal units (Hartrees-Bohrs-Radians)
 RMS Force = .92145D-02 SwitMx=.10000D-02 MixMth= 1
 Mixed Optimization -- RFO/linear search
 Second derivative matrix not updated -- first step.
 ITU=  0
     Eigenvalues ---    0.00466   0.00583   0.00878   0.00972   0.02233
     Eigenvalues ---    0.04519   0.04902   0.05023   0.05495   0.05592
     Eigenvalues ---    0.06644   0.16000   0.16000   0.16000   0.16000
     Eigenvalues ---    0.16000   0.16000   0.17185   0.17853   0.24999
     Eigenvalues ---    0.25000   0.30113   0.30966   0.34108   0.34167
     Eigenvalues ---    0.34178   0.34238   0.36775   0.44358   0.44397
     Eigenvalues ---    0.51187   0.53137   0.94204
 RFO step:  Lambda=-1.67208595D-02 EMin= 4.66326464D-03
 Linear search not attempted -- first point.
 Iteration  1 RMS(Cart)=  0.12368236 RMS(Int)=  0.00755084
 Iteration  2 RMS(Cart)=  0.00968551 RMS(Int)=  0.00172340
 Iteration  3 RMS(Cart)=  0.00004597 RMS(Int)=  0.00172308
 Iteration  4 RMS(Cart)=  0.00000005 RMS(Int)=  0.00172308
 ITry= 1 IFail=0 DXMaxC= 4.39D-01 DCOld= 1.00D+10 DXMaxT= 3.00D-01 DXLimC= 3.00D+00 Rises=F
 Variable       Old X    -DE/DX   Delta X   Delta X   Delta X     New X
                                 (Linear)    (Quad)   (Total)
    R1        2.56826  -0.01879   0.00000  -0.03428  -0.03428   2.53399
    R2        1.85386  -0.01393   0.00000  -0.02636  -0.02636   1.82751
    R3        2.31054  -0.04193   0.00000  -0.04373  -0.04373   2.26680
    R4        2.76187   0.00429   0.00000   0.01115   0.01115   2.77301
    R5        1.92683  -0.00487   0.00000  -0.01056  -0.01056   1.91627
    R6        1.92729  -0.00541   0.00000  -0.01175  -0.01175   1.91554
    R7        2.87739   0.00369   0.00000   0.01162   0.01162   2.88901
    R8        2.86077   0.00725   0.00000   0.02222   0.02222   2.88299
    R9        2.06930  -0.00281   0.00000  -0.00784  -0.00784   2.06146
   R10        2.07031  -0.00197   0.00000  -0.00549  -0.00549   2.06482
   R11        2.07049  -0.00402   0.00000  -0.01121  -0.01121   2.05929
   R12        2.07149  -0.00312   0.00000  -0.00873  -0.00873   2.06275
    A1        1.95241  -0.01668   0.00000  -0.09440  -0.09440   1.85801
    A2        1.91099  -0.00237   0.00000  -0.01006  -0.01006   1.90093
    A3        1.91779   0.00040   0.00000   0.00554   0.00555   1.92335
    A4        1.84595   0.00191   0.00000   0.01782   0.01783   1.86378
    A5        1.91516   0.01062   0.00000   0.08751   0.08730   2.00246
    A6        1.88661   0.01147   0.00000   0.09878   0.09907   1.98567
    A7        1.89697  -0.00742   0.00000  -0.04116  -0.03815   1.85882
    A8        1.93411  -0.01431   0.00000  -0.05546  -0.06307   1.87103
    A9        1.93801   0.00014   0.00000  -0.03861  -0.04102   1.89699
   A10        1.89180  -0.00025   0.00000  -0.04886  -0.05114   1.84066
   A11        1.93705   0.00299   0.00000   0.02208   0.02225   1.95930
   A12        1.94027  -0.00423   0.00000  -0.02604  -0.02630   1.91397
   A13        1.94803  -0.00383   0.00000  -0.02475  -0.02502   1.92301
   A14        1.87519   0.00155   0.00000   0.01461   0.01477   1.88996
   A15        1.87188   0.00103   0.00000   0.00972   0.00988   1.88176
   A16        1.88828   0.00287   0.00000   0.00672   0.00603   1.89431
   A17        2.15067  -0.00849   0.00000  -0.03201  -0.03262   2.11806
   A18        1.92647   0.02321   0.00000   0.08685   0.08626   2.01273
   A19        2.20599  -0.01474   0.00000  -0.05543  -0.05599   2.15000
    D1       -0.00451  -0.00052   0.00000  -0.02278  -0.02319  -0.02770
    D2       -3.13619   0.00114   0.00000   0.03865   0.03906  -3.09713
    D3        1.04921   0.00207   0.00000  -0.03380  -0.03738   1.01183
    D4       -3.12291  -0.00198   0.00000   0.01147   0.01515  -3.10777
    D5       -1.07307   0.00001   0.00000  -0.01452  -0.01462  -1.08770
    D6       -0.97104   0.00090   0.00000  -0.05266  -0.05624  -1.02728
    D7        1.14002  -0.00315   0.00000  -0.00739  -0.00371   1.13631
    D8       -3.09333  -0.00116   0.00000  -0.03338  -0.03347  -3.12680
    D9       -3.08882   0.00434   0.00000   0.03897   0.03833  -3.05049
   D10       -1.00276   0.00548   0.00000   0.05481   0.05393  -0.94883
   D11        1.10732   0.00358   0.00000   0.02829   0.02788   1.13520
   D12        1.11222  -0.00770   0.00000  -0.10452  -0.10283   1.00939
   D13       -3.08490  -0.00656   0.00000  -0.08869  -0.08723   3.11106
   D14       -0.97482  -0.00846   0.00000  -0.11520  -0.11328  -1.08810
   D15       -0.99133   0.00211   0.00000   0.02017   0.01912  -0.97221
   D16        1.09474   0.00326   0.00000   0.03600   0.03472   1.12946
   D17       -3.07837   0.00135   0.00000   0.00949   0.00867  -3.06970
   D18       -0.01514  -0.00634   0.00000  -0.11672  -0.11610  -0.13124
   D19        3.13675  -0.00467   0.00000  -0.05308  -0.05276   3.08400
   D20        2.08410   0.00533   0.00000   0.01967   0.01777   2.10186
   D21       -1.04719   0.00700   0.00000   0.08331   0.08111  -0.96609
   D22       -2.06830  -0.00368   0.00000  -0.09537  -0.09365  -2.16195
   D23        1.08359  -0.00201   0.00000  -0.03174  -0.03031   1.05328
         Item               Value     Threshold  Converged?
 Maximum Force            0.041931     0.000450     NO 
 RMS     Force            0.009214     0.000300     NO 
 Maximum Displacement     0.439434     0.001800     NO 
 RMS     Displacement     0.124938     0.001200     NO 
 Predicted change in Energy=-9.321323D-03
 Lowest energy point so far.  Saving SCF results.
 GradGradGradGradGradGradGradGradGradGradGradGradGradGradGradGradGradGrad

 Leave Link  103 at Tue Feb 13 18:55:47 2024, MaxMem=  3221225472 cpu:               0.1 elap:               0.0
 (Enter /opt/g16/l202.exe)
                          Input orientation:                          
 ---------------------------------------------------------------------
 Center     Atomic      Atomic             Coordinates (Angstroms)
 Number     Number       Type             X           Y           Z
 ---------------------------------------------------------------------
      1          8           0        1.067283    1.331391   -0.469661
      2          8           0        1.528251   -0.753202    0.124411
      3          7           0       -1.534100    1.197617    0.236938
      4          6           0       -0.753526   -0.039269    0.355795
      5          6           0       -1.270956   -1.205577   -0.486359
      6          6           0        0.726132    0.133339    0.026698
      7          1           0       -0.785935   -0.326263    1.407746
      8          1           0       -0.717549   -2.128910   -0.299022
      9          1           0       -2.321537   -1.384447   -0.258783
     10          1           0       -1.180944   -0.971946   -1.548820
     11          1           0       -2.494275    1.007096    0.501615
     12          1           0       -1.552520    1.508541   -0.727683
     13          1           0        2.012715    1.286581   -0.668114
 ---------------------------------------------------------------------
                    Distance matrix (angstroms):
                    1          2          3          4          5
     1  O    0.000000
     2  O    2.216065   0.000000
     3  N    2.698958   3.632679   0.000000
     4  C    2.423930   2.402030   1.467416   0.000000
     5  C    3.450195   2.900560   2.523439   1.528800   0.000000
     6  C    1.340927   1.199541   2.507097   1.525610   2.458513
     7  H    3.115589   2.680426   2.062220   1.090879   2.143845
     8  H    3.897233   2.667487   3.466957   2.190132   1.092657
     9  H    4.347913   3.919971   2.744604   2.155427   1.089727
    10  H    3.394771   3.191753   2.832076   2.163360   1.091563
    11  H    3.705839   4.407000   1.014045   2.036259   2.714502
    12  H    2.638432   3.915699   1.013660   2.051349   2.739334
    13  H    0.967075   2.241321   3.661548   3.233939   4.126304
                    6          7          8          9         10
     6  C    0.000000
     7  H    2.098779   0.000000
     8  H    2.703346   2.483399   0.000000
     9  H    3.416644   2.501028   1.768791   0.000000
    10  H    2.709400   3.051920   1.765020   1.770679   0.000000
    11  H    3.370463   2.348903   3.692196   2.515457   3.137790
    12  H    2.766320   2.917913   3.756591   3.029956   2.639156
    13  H    1.862264   3.839649   4.388184   5.107611   4.009495
                   11         12         13
    11  H    0.000000
    12  H    1.627736   0.000000
    13  H    4.664691   3.572635   0.000000
 Stoichiometry    C3H7NO2
 Framework group  C1[X(C3H7NO2)]
 Deg. of freedom    33
 Full point group                 C1      NOp   1
 RotChk:  IX=3 Diff= 8.52D-02
 Largest Abelian subgroup         C1      NOp   1
 Largest concise Abelian subgroup C1      NOp   1
                         Standard orientation:                         
 ---------------------------------------------------------------------
 Center     Atomic      Atomic             Coordinates (Angstroms)
 Number     Number       Type             X           Y           Z
 ---------------------------------------------------------------------
      1          8           0       -1.314321    1.070418    0.373055
      2          8           0       -1.509958   -1.037120   -0.283417
      3          7           0        1.312686    1.248701   -0.219752
      4          6           0        0.683501   -0.064881   -0.398461
      5          6           0        1.294493   -1.186395    0.441852
      6          6           0       -0.818660   -0.068571   -0.132029
      7          1           0        0.792350   -0.319635   -1.453577
      8          1           0        0.858010   -2.161180    0.211255
      9          1           0        2.367200   -1.239868    0.257610
     10          1           0        1.134094   -0.991407    1.503812
     11          1           0        2.298532    1.174405   -0.445308
     12          1           0        1.255227    1.535168    0.750889
     13          1           0       -2.255998    0.914301    0.528311
 ---------------------------------------------------------------------
 Rotational constants (GHZ):           5.0405985           3.2330976           2.2146090
 Leave Link  202 at Tue Feb 13 18:55:47 2024, MaxMem=  3221225472 cpu:               0.0 elap:               0.0
 (Enter /opt/g16/l301.exe)
 Standard basis: def2TZVP (5D, 7F)
 Ernie: Thresh=  0.10000D-02 Tol=  0.10000D-05 Strict=F.
 There are   258 symmetry adapted cartesian basis functions of A   symmetry.
 There are   228 symmetry adapted basis functions of A   symmetry.
   228 basis functions,   362 primitive gaussians,   258 cartesian basis functions
    24 alpha electrons       24 beta electrons
       nuclear repulsion energy       249.6625798918 Hartrees.
 IExCor= 4336 DFT=T Ex+Corr=M062X ExCW=0 ScaHFX=  0.540000
 ScaDFX=  1.000000  1.000000  1.000000  1.000000 ScalE2=  1.000000  1.000000
 IRadAn=      5 IRanWt=     -1 IRanGd=            0 ICorTp=0 IEmpDi=  4
 NAtoms=   13 NActive=   13 NUniq=   13 SFac= 1.00D+00 NAtFMM=   60 NAOKFM=F Big=F
 Integral buffers will be    131072 words long.
 Raffenetti 2 integral format.
 Two-electron integral symmetry is turned on.
 Leave Link  301 at Tue Feb 13 18:55:47 2024, MaxMem=  3221225472 cpu:               0.3 elap:               0.0
 (Enter /opt/g16/l302.exe)
 NPDir=0 NMtPBC=     1 NCelOv=     1 NCel=       1 NClECP=     1 NCelD=      1
         NCelK=      1 NCelE2=     1 NClLst=     1 CellRange=     0.0.
 One-electron integrals computed using PRISM.
 One-electron integral symmetry used in STVInt
   1 Symmetry operations used in ECPInt.
 ECPInt:  NShTT=    4465 NPrTT=   13356 LenC2=    4421 LenP2D=   10945.
 LDataN:  DoStor=T MaxTD1= 6 Len=  172
 NBasis=   228 RedAO= T EigKep=  2.28D-04  NBF=   228
 NBsUse=   228 1.00D-06 EigRej= -1.00D+00 NBFU=   228
 Precomputing XC quadrature grid using
 IXCGrd= 4 IRadAn=           5 IRanWt=          -1 IRanGd=           0 AccXCQ= 0.00D+00.
 Generated NRdTot=       0 NPtTot=           0 NUsed=           0 NTot=          32
 NSgBfM=   257   257   257   257   257 MxSgAt=    13 MxSgA2=    13.
 Leave Link  302 at Tue Feb 13 18:55:47 2024, MaxMem=  3221225472 cpu:               1.8 elap:               0.2
 (Enter /opt/g16/l303.exe)
 DipDrv:  MaxL=1.
 Leave Link  303 at Tue Feb 13 18:55:47 2024, MaxMem=  3221225472 cpu:               0.3 elap:               0.0
 (Enter /opt/g16/l401.exe)
 Initial guess from the checkpoint file:  "/scratch/Gau-26320.chk"
 B after Tr=     0.000000    0.000000    0.000000
         Rot=    0.999565   -0.013023    0.014531    0.022107 Ang=  -3.38 deg.
 Guess basis will be translated and rotated to current coordinates.
 JPrj=2 DoOrth=T DoCkMO=T.
 Generating alternative initial guess.
 ExpMin= 9.52D-02 ExpMax= 2.70D+04 ExpMxC= 9.22D+02 IAcc=2 IRadAn=         4 AccDes= 0.00D+00
 Harris functional with IExCor= 1009 and IRadAn=       4 diagonalized for initial guess.
 HarFok:  IExCor= 1009 AccDes= 0.00D+00 IRadAn=         4 IDoV= 1 UseB2=F ITyADJ=14
 ICtDFT=  3500011 ScaDFX=  1.000000  1.000000  1.000000  1.000000
 FoFCou: FMM=F IPFlag=           0 FMFlag=      100000 FMFlg1=           0
         NFxFlg=           0 DoJE=T BraDBF=F KetDBF=T FulRan=T
         wScrn=  0.000000 ICntrl=       500 IOpCl=  0 I1Cent=   200000004 NGrid=           0
         NMat0=    1 NMatS0=      1 NMatT0=    0 NMatD0=    1 NMtDS0=    0 NMtDT0=    0
 Petite list used in FoFCou.
 Harris En= -323.618695297719    
 Leave Link  401 at Tue Feb 13 18:55:47 2024, MaxMem=  3221225472 cpu:               3.8 elap:               0.5
 (Enter /opt/g16/l502.exe)
 Integral symmetry usage will be decided dynamically.
 Closed shell SCF:
 Using DIIS extrapolation, IDIIS=  1040.
 NGot=  3221225472 LenX=  3221087835 LenY=  3221020830
 Requested convergence on RMS density matrix=1.00D-08 within 128 cycles.
 Requested convergence on MAX density matrix=1.00D-06.
 Requested convergence on             energy=1.00D-06.
 No special actions if energy rises.
 Fock matrices will be formed incrementally for  20 cycles.
 Integral accuracy reduced to 1.0D-05 until final iterations.

 Cycle   1  Pass 0  IDiag  1:
 FoFJK:  IHMeth= 1 ICntrl=       0 DoSepK=F KAlg= 0 I1Cent=           0 FoldK=F
 IRaf= 980000000 NMat=       1 IRICut=       1 DoRegI=T DoRafI=F ISym2E= 0 IDoP0=0 IntGTp=1.
 FoFCou: FMM=F IPFlag=           0 FMFlag=      100000 FMFlg1=           0
         NFxFlg=           0 DoJE=F BraDBF=F KetDBF=F FulRan=T
         wScrn=  0.000000 ICntrl=         0 IOpCl=  0 I1Cent=           0 NGrid=           0
         NMat0=    1 NMatS0=      1 NMatT0=    0 NMatD0=    1 NMtDS0=    0 NMtDT0=    0
 Symmetry not used in FoFCou.
 E= -323.723044771766    
 DIIS: error= 4.83D-03 at cycle   1 NSaved=   1.
 NSaved= 1 IEnMin= 1 EnMin= -323.723044771766     IErMin= 1 ErrMin= 4.83D-03
 ErrMax= 4.83D-03  0.00D+00 EMaxC= 1.00D-01 BMatC= 1.55D-02 BMatP= 1.55D-02
 IDIUse=3 WtCom= 9.52D-01 WtEn= 4.83D-02
 Coeff-Com:  0.100D+01
 Coeff-En:   0.100D+01
 Coeff:      0.100D+01
 Gap=     0.764 Goal=   None    Shift=    0.000
 GapD=    0.764 DampG=2.000 DampE=1.000 DampFc=2.0000 IDamp=-1.
 RMSDP=7.33D-04 MaxDP=4.09D-02              OVMax= 2.77D-02

 Cycle   2  Pass 0  IDiag  1:
 RMSU=  7.24D-04    CP:  9.90D-01
 E= -323.740604681871     Delta-E=       -0.017559910105 Rises=F Damp=F
 DIIS: error= 7.97D-04 at cycle   2 NSaved=   2.
 NSaved= 2 IEnMin= 2 EnMin= -323.740604681871     IErMin= 2 ErrMin= 7.97D-04
 ErrMax= 7.97D-04  0.00D+00 EMaxC= 1.00D-01 BMatC= 5.40D-04 BMatP= 1.55D-02
 IDIUse=3 WtCom= 9.92D-01 WtEn= 7.97D-03
 Coeff-Com: -0.892D-01 0.109D+01
 Coeff-En:   0.000D+00 0.100D+01
 Coeff:     -0.884D-01 0.109D+01
 Gap=     0.360 Goal=   None    Shift=    0.000
 RMSDP=1.44D-04 MaxDP=3.55D-03 DE=-1.76D-02 OVMax= 7.40D-03

 Cycle   3  Pass 0  IDiag  1:
 RMSU=  1.21D-04    CP:  9.88D-01  1.11D+00
 E= -323.741168837373     Delta-E=       -0.000564155501 Rises=F Damp=F
 DIIS: error= 7.18D-04 at cycle   3 NSaved=   3.
 NSaved= 3 IEnMin= 3 EnMin= -323.741168837373     IErMin= 3 ErrMin= 7.18D-04
 ErrMax= 7.18D-04  0.00D+00 EMaxC= 1.00D-01 BMatC= 3.37D-04 BMatP= 5.40D-04
 IDIUse=3 WtCom= 9.93D-01 WtEn= 7.18D-03
 Coeff-Com: -0.685D-01 0.515D+00 0.553D+00
 Coeff-En:   0.000D+00 0.000D+00 0.100D+01
 Coeff:     -0.680D-01 0.511D+00 0.557D+00
 Gap=     0.361 Goal=   None    Shift=    0.000
 RMSDP=6.12D-05 MaxDP=1.83D-03 DE=-5.64D-04 OVMax= 4.07D-03

 Cycle   4  Pass 0  IDiag  1:
 RMSU=  4.28D-05    CP:  9.88D-01  1.14D+00  6.87D-01
 E= -323.741399263007     Delta-E=       -0.000230425635 Rises=F Damp=F
 DIIS: error= 1.76D-04 at cycle   4 NSaved=   4.
 NSaved= 4 IEnMin= 4 EnMin= -323.741399263007     IErMin= 4 ErrMin= 1.76D-04
 ErrMax= 1.76D-04  0.00D+00 EMaxC= 1.00D-01 BMatC= 2.41D-05 BMatP= 3.37D-04
 IDIUse=3 WtCom= 9.98D-01 WtEn= 1.76D-03
 Coeff-Com: -0.186D-01 0.892D-01 0.225D+00 0.705D+00
 Coeff-En:   0.000D+00 0.000D+00 0.000D+00 0.100D+01
 Coeff:     -0.186D-01 0.890D-01 0.224D+00 0.705D+00
 Gap=     0.361 Goal=   None    Shift=    0.000
 RMSDP=2.58D-05 MaxDP=9.49D-04 DE=-2.30D-04 OVMax= 1.95D-03

 Cycle   5  Pass 0  IDiag  1:
 RMSU=  1.94D-05    CP:  9.88D-01  1.14D+00  7.79D-01  7.24D-01
 E= -323.741414751638     Delta-E=       -0.000015488631 Rises=F Damp=F
 DIIS: error= 1.03D-04 at cycle   5 NSaved=   5.
 NSaved= 5 IEnMin= 5 EnMin= -323.741414751638     IErMin= 5 ErrMin= 1.03D-04
 ErrMax= 1.03D-04  0.00D+00 EMaxC= 1.00D-01 BMatC= 5.45D-06 BMatP= 2.41D-05
 IDIUse=3 WtCom= 9.99D-01 WtEn= 1.03D-03
 Coeff-Com:  0.761D-03-0.320D-01 0.314D-01 0.373D+00 0.626D+00
 Coeff-En:   0.000D+00 0.000D+00 0.000D+00 0.686D-01 0.931D+00
 Coeff:      0.760D-03-0.319D-01 0.314D-01 0.373D+00 0.627D+00
 Gap=     0.361 Goal=   None    Shift=    0.000
 RMSDP=8.80D-06 MaxDP=3.67D-04 DE=-1.55D-05 OVMax= 6.13D-04

 Initial convergence to 1.0D-05 achieved.  Increase integral accuracy.
 Cycle   6  Pass 1  IDiag  1:
 E= -323.741446941725     Delta-E=       -0.000032190087 Rises=F Damp=F
 DIIS: error= 2.30D-05 at cycle   1 NSaved=   1.
 NSaved= 1 IEnMin= 1 EnMin= -323.741446941725     IErMin= 1 ErrMin= 2.30D-05
 ErrMax= 2.30D-05  0.00D+00 EMaxC= 1.00D-01 BMatC= 3.99D-07 BMatP= 3.99D-07
 IDIUse=1 WtCom= 1.00D+00 WtEn= 0.00D+00
 Coeff-Com:  0.100D+01
 Coeff:      0.100D+01
 Gap=     0.361 Goal=   None    Shift=    0.000
 RMSDP=8.80D-06 MaxDP=3.67D-04 DE=-3.22D-05 OVMax= 2.48D-04

 Cycle   7  Pass 1  IDiag  1:
 RMSU=  5.50D-06    CP:  1.00D+00
 E= -323.741446988817     Delta-E=       -0.000000047091 Rises=F Damp=F
 DIIS: error= 2.34D-05 at cycle   2 NSaved=   2.
 NSaved= 2 IEnMin= 2 EnMin= -323.741446988817     IErMin= 1 ErrMin= 2.30D-05
 ErrMax= 2.34D-05  0.00D+00 EMaxC= 1.00D-01 BMatC= 4.28D-07 BMatP= 3.99D-07
 IDIUse=1 WtCom= 1.00D+00 WtEn= 0.00D+00
 Coeff-Com:  0.510D+00 0.490D+00
 Coeff:      0.510D+00 0.490D+00
 Gap=     0.361 Goal=   None    Shift=    0.000
 RMSDP=1.74D-06 MaxDP=6.14D-05 DE=-4.71D-08 OVMax= 1.36D-04

 Cycle   8  Pass 1  IDiag  1:
 RMSU=  1.64D-06    CP:  1.00D+00  8.98D-01
 E= -323.741447287581     Delta-E=       -0.000000298765 Rises=F Damp=F
 DIIS: error= 5.18D-06 at cycle   3 NSaved=   3.
 NSaved= 3 IEnMin= 3 EnMin= -323.741447287581     IErMin= 3 ErrMin= 5.18D-06
 ErrMax= 5.18D-06  0.00D+00 EMaxC= 1.00D-01 BMatC= 1.71D-08 BMatP= 3.99D-07
 IDIUse=1 WtCom= 1.00D+00 WtEn= 0.00D+00
 Coeff-Com:  0.210D-01 0.153D+00 0.826D+00
 Coeff:      0.210D-01 0.153D+00 0.826D+00
 Gap=     0.361 Goal=   None    Shift=    0.000
 RMSDP=7.65D-07 MaxDP=2.83D-05 DE=-2.99D-07 OVMax= 6.37D-05

 Cycle   9  Pass 1  IDiag  1:
 RMSU=  6.86D-07    CP:  1.00D+00  9.53D-01  9.13D-01
 E= -323.741447301433     Delta-E=       -0.000000013851 Rises=F Damp=F
 DIIS: error= 2.88D-06 at cycle   4 NSaved=   4.
 NSaved= 4 IEnMin= 4 EnMin= -323.741447301433     IErMin= 4 ErrMin= 2.88D-06
 ErrMax= 2.88D-06  0.00D+00 EMaxC= 1.00D-01 BMatC= 5.80D-09 BMatP= 1.71D-08
 IDIUse=1 WtCom= 1.00D+00 WtEn= 0.00D+00
 Coeff-Com: -0.316D-01 0.424D-01 0.463D+00 0.526D+00
 Coeff:     -0.316D-01 0.424D-01 0.463D+00 0.526D+00
 Gap=     0.361 Goal=   None    Shift=    0.000
 RMSDP=2.93D-07 MaxDP=8.81D-06 DE=-1.39D-08 OVMax= 2.58D-05

 Cycle  10  Pass 1  IDiag  1:
 RMSU=  2.25D-07    CP:  1.00D+00  9.66D-01  9.81D-01  8.05D-01
 E= -323.741447306399     Delta-E=       -0.000000004966 Rises=F Damp=F
 DIIS: error= 7.68D-07 at cycle   5 NSaved=   5.
 NSaved= 5 IEnMin= 5 EnMin= -323.741447306399     IErMin= 5 ErrMin= 7.68D-07
 ErrMax= 7.68D-07  0.00D+00 EMaxC= 1.00D-01 BMatC= 2.49D-10 BMatP= 5.80D-09
 IDIUse=1 WtCom= 1.00D+00 WtEn= 0.00D+00
 Coeff-Com: -0.905D-02-0.189D-01-0.463D-01 0.765D-01 0.998D+00
 Coeff:     -0.905D-02-0.189D-01-0.463D-01 0.765D-01 0.998D+00
 Gap=     0.361 Goal=   None    Shift=    0.000
 RMSDP=1.52D-07 MaxDP=4.22D-06 DE=-4.97D-09 OVMax= 2.21D-05

 Cycle  11  Pass 1  IDiag  1:
 RMSU=  7.62D-08    CP:  1.00D+00  9.73D-01  1.01D+00  9.26D-01  1.36D+00
 E= -323.741447307174     Delta-E=       -0.000000000775 Rises=F Damp=F
 DIIS: error= 3.19D-07 at cycle   6 NSaved=   6.
 NSaved= 6 IEnMin= 6 EnMin= -323.741447307174     IErMin= 6 ErrMin= 3.19D-07
 ErrMax= 3.19D-07  0.00D+00 EMaxC= 1.00D-01 BMatC= 5.40D-11 BMatP= 2.49D-10
 IDIUse=1 WtCom= 1.00D+00 WtEn= 0.00D+00
 Coeff-Com:  0.350D-02-0.149D-01-0.104D+00-0.829D-01 0.300D+00 0.898D+00
 Coeff:      0.350D-02-0.149D-01-0.104D+00-0.829D-01 0.300D+00 0.898D+00
 Gap=     0.361 Goal=   None    Shift=    0.000
 RMSDP=7.06D-08 MaxDP=1.77D-06 DE=-7.75D-10 OVMax= 1.13D-05

 Cycle  12  Pass 1  IDiag  1:
 RMSU=  3.03D-08    CP:  1.00D+00  9.75D-01  1.02D+00  9.82D-01  1.56D+00
                    CP:  1.15D+00
 E= -323.741447307312     Delta-E=       -0.000000000139 Rises=F Damp=F
 DIIS: error= 1.05D-07 at cycle   7 NSaved=   7.
 NSaved= 7 IEnMin= 7 EnMin= -323.741447307312     IErMin= 7 ErrMin= 1.05D-07
 ErrMax= 1.05D-07  0.00D+00 EMaxC= 1.00D-01 BMatC= 6.22D-12 BMatP= 5.40D-11
 IDIUse=1 WtCom= 1.00D+00 WtEn= 0.00D+00
 Coeff-Com:  0.188D-02-0.343D-02-0.313D-01-0.338D-01 0.192D-01 0.324D+00
 Coeff-Com:  0.723D+00
 Coeff:      0.188D-02-0.343D-02-0.313D-01-0.338D-01 0.192D-01 0.324D+00
 Coeff:      0.723D+00
 Gap=     0.361 Goal=   None    Shift=    0.000
 RMSDP=1.49D-08 MaxDP=6.26D-07 DE=-1.39D-10 OVMax= 2.09D-06

 Cycle  13  Pass 1  IDiag  1:
 RMSU=  1.09D-08    CP:  1.00D+00  9.75D-01  1.02D+00  9.84D-01  1.60D+00
                    CP:  1.24D+00  1.01D+00
 E= -323.741447307318     Delta-E=       -0.000000000006 Rises=F Damp=F
 DIIS: error= 3.76D-08 at cycle   8 NSaved=   8.
 NSaved= 8 IEnMin= 8 EnMin= -323.741447307318     IErMin= 8 ErrMin= 3.76D-08
 ErrMax= 3.76D-08  0.00D+00 EMaxC= 1.00D-01 BMatC= 7.35D-13 BMatP= 6.22D-12
 IDIUse=1 WtCom= 1.00D+00 WtEn= 0.00D+00
 Coeff-Com: -0.687D-04 0.176D-02 0.936D-02 0.607D-02-0.510D-01-0.691D-01
 Coeff-Com:  0.197D+00 0.906D+00
 Coeff:     -0.687D-04 0.176D-02 0.936D-02 0.607D-02-0.510D-01-0.691D-01
 Coeff:      0.197D+00 0.906D+00
 Gap=     0.361 Goal=   None    Shift=    0.000
 RMSDP=7.41D-09 MaxDP=2.72D-07 DE=-5.68D-12 OVMax= 9.56D-07

 SCF Done:  E(RM062X) =  -323.741447307     A.U. after   13 cycles
            NFock= 13  Conv=0.74D-08     -V/T= 2.0045
 KE= 3.222834146539D+02 PE=-1.257498799522D+03 EE= 3.618113576694D+02
 Leave Link  502 at Tue Feb 13 18:56:11 2024, MaxMem=  3221225472 cpu:             186.1 elap:              23.3
 (Enter /opt/g16/l701.exe)
 ... and contract with generalized density number  0.
 Compute integral first derivatives.
   1 Symmetry operations used in ECPInt.
 ECPInt:  NShTT=    4465 NPrTT=   13356 LenC2=    4421 LenP2D=   10945.
 LDataN:  DoStor=T MaxTD1= 7 Len=  274
 Leave Link  701 at Tue Feb 13 18:56:11 2024, MaxMem=  3221225472 cpu:               1.7 elap:               0.2
 (Enter /opt/g16/l702.exe)
 L702 exits ... SP integral derivatives will be done elsewhere.
 Leave Link  702 at Tue Feb 13 18:56:11 2024, MaxMem=  3221225472 cpu:               0.2 elap:               0.0
 (Enter /opt/g16/l703.exe)
 Integral derivatives from FoFJK, PRISM(SPDF).
 Compute integral first derivatives, UseDBF=F ICtDFT=           0.
 Calling FoFJK, ICntrl=      2127 FMM=F ISym2X=0 I1Cent= 0 IOpClX= 0 NMat=1 NMatS=1 NMatT=0.
 FoFJK:  IHMeth= 1 ICntrl=    2127 DoSepK=F KAlg= 0 I1Cent=           0 FoldK=F
 IRaf=         0 NMat=       1 IRICut=       1 DoRegI=T DoRafI=F ISym2E= 0 IDoP0=0 IntGTp=1.
 FoFCou: FMM=F IPFlag=           0 FMFlag=      100000 FMFlg1=         800
         NFxFlg=           0 DoJE=F BraDBF=F KetDBF=F FulRan=T
         wScrn=  0.000000 ICntrl=      2127 IOpCl=  0 I1Cent=           0 NGrid=           0
         NMat0=    1 NMatS0=      1 NMatT0=    0 NMatD0=    1 NMtDS0=    0 NMtDT0=    0
 Symmetry not used in FoFCou.
 Leave Link  703 at Tue Feb 13 18:56:18 2024, MaxMem=  3221225472 cpu:              57.9 elap:               7.2
 (Enter /opt/g16/l716.exe)
 Dipole        = 6.45274755D-01 1.54196333D-01 4.34051376D-01
 ***** Axes restored to original set *****
 -------------------------------------------------------------------
 Center     Atomic                   Forces (Hartrees/Bohr)
 Number     Number              X              Y              Z
 -------------------------------------------------------------------
      1        8          -0.006959903    0.002312243    0.001897723
      2        8          -0.001068964   -0.002600291    0.004180358
      3        7           0.007060768   -0.005918340   -0.001176360
      4        6          -0.002112710    0.005391026    0.000743517
      5        6          -0.000297231   -0.004564170   -0.001581561
      6        6          -0.000431750    0.001423329   -0.004563730
      7        1           0.001767777   -0.001221562    0.000876569
      8        1           0.000367217    0.003185141    0.000840302
      9        1          -0.000565857    0.000549969   -0.000170006
     10        1          -0.001030099    0.000576859   -0.000509737
     11        1           0.001028935   -0.000040593    0.000369710
     12        1           0.001120084    0.001116213   -0.000543572
     13        1           0.001121732   -0.000209824   -0.000363211
 -------------------------------------------------------------------
 Cartesian Forces:  Max     0.007060768 RMS     0.002649033
 Leave Link  716 at Tue Feb 13 18:56:18 2024, MaxMem=  3221225472 cpu:               0.3 elap:               0.0
 (Enter /opt/g16/l103.exe)

 GradGradGradGradGradGradGradGradGradGradGradGradGradGradGradGradGradGrad
 Berny optimization.
 Using GEDIIS/GDIIS optimizer.
 FormGI is forming the generalized inverse of G from B-inverse, IUseBI=4.
 Internal  Forces:  Max     0.008869888 RMS     0.002706360
 Search for a local minimum.
 Step number   2 out of a maximum of   64
 All quantities printed in internal units (Hartrees-Bohrs-Radians)
 RMS Force = .27064D-02 SwitMx=.10000D-02 MixMth= 1
 Mixed Optimization -- RFO/linear search
 Update second derivatives using D2CorX and points    1    2
 DE= -6.57D-03 DEPred=-9.32D-03 R= 7.05D-01
 TightC=F SS=  1.41D+00  RLast= 3.66D-01 DXNew= 5.0454D-01 1.0993D+00
 Trust test= 7.05D-01 RLast= 3.66D-01 DXMaxT set to 5.05D-01
 ITU=  1  0
 Use linear search instead of GDIIS.
     Eigenvalues ---    0.00466   0.00582   0.00878   0.01031   0.02233
     Eigenvalues ---    0.04469   0.04621   0.05255   0.05522   0.05766
     Eigenvalues ---    0.06668   0.15375   0.16000   0.16000   0.16000
     Eigenvalues ---    0.16000   0.16159   0.17707   0.19525   0.24532
     Eigenvalues ---    0.27493   0.30069   0.32143   0.34076   0.34134
     Eigenvalues ---    0.34205   0.34339   0.38273   0.44327   0.44421
     Eigenvalues ---    0.51239   0.52799   0.92716
 RFO step:  Lambda=-1.55245724D-03 EMin= 4.66376347D-03
 Quartic linear search produced a step of -0.15469.
 Iteration  1 RMS(Cart)=  0.04173976 RMS(Int)=  0.00171562
 Iteration  2 RMS(Cart)=  0.00178812 RMS(Int)=  0.00067362
 Iteration  3 RMS(Cart)=  0.00000169 RMS(Int)=  0.00067362
 Iteration  4 RMS(Cart)=  0.00000000 RMS(Int)=  0.00067362
 ITry= 1 IFail=0 DXMaxC= 1.53D-01 DCOld= 1.00D+10 DXMaxT= 5.05D-01 DXLimC= 3.00D+00 Rises=F
 Variable       Old X    -DE/DX   Delta X   Delta X   Delta X     New X
                                 (Linear)    (Quad)   (Total)
    R1        2.53399  -0.00018   0.00530  -0.00872  -0.00342   2.53057
    R2        1.82751   0.00118   0.00408  -0.00455  -0.00047   1.82704
    R3        2.26680   0.00155   0.00677  -0.00940  -0.00263   2.26417
    R4        2.77301  -0.00887  -0.00172  -0.01752  -0.01925   2.75377
    R5        1.91627  -0.00087   0.00163  -0.00425  -0.00262   1.91365
    R6        1.91554   0.00084   0.00182  -0.00130   0.00052   1.91606
    R7        2.88901   0.00149  -0.00180   0.00701   0.00521   2.89423
    R8        2.88299  -0.00726  -0.00344  -0.01422  -0.01766   2.86533
    R9        2.06146   0.00111   0.00121   0.00081   0.00202   2.06348
   R10        2.06482  -0.00236   0.00085  -0.00715  -0.00630   2.05852
   R11        2.05929   0.00042   0.00173  -0.00172   0.00001   2.05930
   R12        2.06275   0.00053   0.00135  -0.00083   0.00052   2.06327
    A1        1.85801  -0.00020   0.01460  -0.02413  -0.00953   1.84848
    A2        1.90093  -0.00035   0.00156  -0.00128   0.00025   1.90118
    A3        1.92335   0.00050  -0.00086   0.00692   0.00603   1.92938
    A4        1.86378   0.00064  -0.00276   0.01392   0.01111   1.87489
    A5        2.00246   0.00201  -0.01351   0.02858   0.01502   2.01748
    A6        1.98567  -0.00650  -0.01532  -0.01575  -0.03111   1.95456
    A7        1.85882   0.00194   0.00590   0.00697   0.01209   1.87091
    A8        1.87103   0.00379   0.00976  -0.00330   0.00778   1.87881
    A9        1.89699  -0.00138   0.00635  -0.00298   0.00361   1.90061
   A10        1.84066   0.00003   0.00791  -0.01688  -0.00859   1.83207
   A11        1.95930  -0.00315  -0.00344  -0.01079  -0.01427   1.94503
   A12        1.91397   0.00007   0.00407  -0.00628  -0.00218   1.91179
   A13        1.92301   0.00056   0.00387  -0.00323   0.00068   1.92369
   A14        1.88996   0.00163  -0.00229   0.01225   0.00992   1.89988
   A15        1.88176   0.00141  -0.00153   0.01014   0.00858   1.89035
   A16        1.89431  -0.00042  -0.00093  -0.00137  -0.00220   1.89212
   A17        2.11806   0.00811   0.00505   0.02203   0.02467   2.14273
   A18        2.01273  -0.00767  -0.01334  -0.00188  -0.01759   1.99513
   A19        2.15000  -0.00034   0.00866  -0.01239  -0.00606   2.14394
    D1       -0.02770   0.00089   0.00359   0.06495   0.06949   0.04178
    D2       -3.09713  -0.00060  -0.00604  -0.05084  -0.05783   3.12822
    D3        1.01183  -0.00002   0.00578  -0.01177  -0.00530   1.00652
    D4       -3.10777   0.00139  -0.00234  -0.00573  -0.00864  -3.11640
    D5       -1.08770  -0.00088   0.00226  -0.03044  -0.02826  -1.11595
    D6       -1.02728  -0.00087   0.00870  -0.03178  -0.02242  -1.04970
    D7        1.13631   0.00053   0.00057  -0.02574  -0.02576   1.11056
    D8       -3.12680  -0.00173   0.00518  -0.05044  -0.04537   3.11101
    D9       -3.05049  -0.00246  -0.00593  -0.03883  -0.04467  -3.09516
   D10       -0.94883  -0.00241  -0.00834  -0.03472  -0.04293  -0.99176
   D11        1.13520  -0.00254  -0.00431  -0.04231  -0.04657   1.08864
   D12        1.00939   0.00159   0.01591  -0.03642  -0.02078   0.98861
   D13        3.11106   0.00163   0.01349  -0.03231  -0.01904   3.09202
   D14       -1.08810   0.00150   0.01752  -0.03990  -0.02267  -1.11078
   D15       -0.97221   0.00032  -0.00296  -0.01369  -0.01649  -0.98870
   D16        1.12946   0.00036  -0.00537  -0.00958  -0.01475   1.11471
   D17       -3.06970   0.00023  -0.00134  -0.01717  -0.01838  -3.08808
   D18       -0.13124  -0.00022   0.01796  -0.01771  -0.00008  -0.13132
   D19        3.08400  -0.00213   0.00816  -0.13745  -0.12891   2.95509
   D20        2.10186   0.00067  -0.00275   0.00570   0.00296   2.10482
   D21       -0.96609  -0.00123  -0.01255  -0.11404  -0.12587  -1.09196
   D22       -2.16195   0.00083   0.01449  -0.00726   0.00649  -2.15546
   D23        1.05328  -0.00107   0.00469  -0.12700  -0.12234   0.93094
         Item               Value     Threshold  Converged?
 Maximum Force            0.008870     0.000450     NO 
 RMS     Force            0.002706     0.000300     NO 
 Maximum Displacement     0.152793     0.001800     NO 
 RMS     Displacement     0.042405     0.001200     NO 
 Predicted change in Energy=-1.055336D-03
 Lowest energy point so far.  Saving SCF results.
 GradGradGradGradGradGradGradGradGradGradGradGradGradGradGradGradGradGrad

 Leave Link  103 at Tue Feb 13 18:56:18 2024, MaxMem=  3221225472 cpu:               0.1 elap:               0.0
 (Enter /opt/g16/l202.exe)
                          Input orientation:                          
 ---------------------------------------------------------------------
 Center     Atomic      Atomic             Coordinates (Angstroms)
 Number     Number       Type             X           Y           Z
 ---------------------------------------------------------------------
      1          8           0        1.023049    1.330335   -0.487200
      2          8           0        1.536141   -0.724626    0.205266
      3          7           0       -1.494581    1.193542    0.231962
      4          6           0       -0.752571   -0.055635    0.343764
      5          6           0       -1.287362   -1.220163   -0.495012
      6          6           0        0.713693    0.122393    0.001073
      7          1           0       -0.763089   -0.344204    1.396838
      8          1           0       -0.712724   -2.129918   -0.325434
      9          1           0       -2.328947   -1.408022   -0.235535
     10          1           0       -1.235572   -0.974839   -1.557670
     11          1           0       -2.458821    1.027374    0.492947
     12          1           0       -1.492158    1.524303   -0.726504
     13          1           0        1.975982    1.314408   -0.649733
 ---------------------------------------------------------------------
                    Distance matrix (angstroms):
                    1          2          3          4          5
     1  O    0.000000
     2  O    2.228371   0.000000
     3  N    2.621901   3.586831   0.000000
     4  C    2.400883   2.388500   1.457231   0.000000
     5  C    3.441381   2.950952   2.529309   1.531559   0.000000
     6  C    1.339118   1.198148   2.465186   1.516265   2.460240
     7  H    3.089331   2.617446   2.063172   1.091947   2.149712
     8  H    3.874587   2.704419   3.459390   2.179923   1.089321
     9  H    4.335644   3.949714   2.771796   2.156270   1.089733
    10  H    3.400162   3.294380   2.823428   2.166489   1.091837
    11  H    3.629861   4.371725   1.012661   2.026438   2.720257
    12  H    2.533999   3.885418   1.013935   2.046623   2.761816
    13  H    0.966826   2.254361   3.582848   3.210771   4.134901
                    6          7          8          9         10
     6  C    0.000000
     7  H    2.084888   0.000000
     8  H    2.685922   2.481438   0.000000
     9  H    3.414061   2.499652   1.772398   0.000000
    10  H    2.726395   3.057786   1.768045   1.769508   0.000000
    11  H    3.335531   2.360879   3.699607   2.545330   3.116123
    12  H    2.713023   2.920863   3.757886   3.088656   2.646202
    13  H    1.854137   3.800257   4.381517   5.110343   4.047107
                   11         12         13
    11  H    0.000000
    12  H    1.633535   0.000000
    13  H    4.588636   3.475333   0.000000
 Stoichiometry    C3H7NO2
 Framework group  C1[X(C3H7NO2)]
 Deg. of freedom    33
 Full point group                 C1      NOp   1
 RotChk:  IX=3 Diff= 5.37D-02
 Largest Abelian subgroup         C1      NOp   1
 Largest concise Abelian subgroup C1      NOp   1
                         Standard orientation:                         
 ---------------------------------------------------------------------
 Center     Atomic      Atomic             Coordinates (Angstroms)
 Number     Number       Type             X           Y           Z
 ---------------------------------------------------------------------
[...]
 ! R8    R(4,6)                  1.5132         -DE/DX =    0.0                 !
 ! R9    R(4,7)                  1.0899         -DE/DX =    0.0                 !
 ! R10   R(5,8)                  1.0907         -DE/DX =    0.0                 !
 ! R11   R(5,9)                  1.0905         -DE/DX =    0.0                 !
 ! R12   R(5,10)                 1.0914         -DE/DX =    0.0                 !
 ! A1    A(6,1,13)             107.2719         -DE/DX =    0.0                 !
 ! A2    A(4,3,11)             109.984          -DE/DX =    0.0                 !
 ! A3    A(4,3,12)             110.2593         -DE/DX =    0.0                 !
 ! A4    A(11,3,12)            107.8133         -DE/DX =    0.0                 !
 ! A5    A(3,4,5)              115.1041         -DE/DX =    0.0                 !
 ! A6    A(3,4,6)              110.0133         -DE/DX =    0.0                 !
 ! A7    A(3,4,7)              108.5641         -DE/DX =    0.0                 !
 ! A8    A(5,4,6)              107.9771         -DE/DX =    0.0                 !
 ! A9    A(5,4,7)              109.2812         -DE/DX =    0.0                 !
 ! A10   A(6,4,7)              105.4679         -DE/DX =    0.0                 !
 ! A11   A(4,5,8)              111.2689         -DE/DX =    0.0                 !
 ! A12   A(4,5,9)              109.4919         -DE/DX =    0.0                 !
 ! A13   A(4,5,10)             110.1698         -DE/DX =    0.0                 !
 ! A14   A(8,5,9)              108.4977         -DE/DX =    0.0                 !
 ! A15   A(8,5,10)             108.8821         -DE/DX =    0.0                 !
 ! A16   A(9,5,10)             108.4681         -DE/DX =    0.0                 !
 ! A17   A(1,6,2)              122.6478         -DE/DX =    0.0                 !
 ! A18   A(1,6,4)              112.0503         -DE/DX =    0.0                 !
 ! A19   A(2,6,4)              125.2105         -DE/DX =    0.0                 !
 ! D1    D(13,1,6,2)            -1.1758         -DE/DX =    0.0                 !
 ! D2    D(13,1,6,4)          -177.866          -DE/DX =    0.0                 !
 ! D3    D(11,3,4,5)            56.8111         -DE/DX =    0.0                 !
 ! D4    D(11,3,4,6)           179.0458         -DE/DX =    0.0                 !
 ! D5    D(11,3,4,7)           -66.0096         -DE/DX =    0.0                 !
 ! D6    D(12,3,4,5)           -61.9532         -DE/DX =    0.0                 !
 ! D7    D(12,3,4,6)            60.2815         -DE/DX =    0.0                 !
 ! D8    D(12,3,4,7)           175.2261         -DE/DX =    0.0                 !
 ! D9    D(3,4,5,8)           -179.5787         -DE/DX =    0.0                 !
 ! D10   D(3,4,5,9)            -59.6491         -DE/DX =    0.0                 !
 ! D11   D(3,4,5,10)            59.5607         -DE/DX =    0.0                 !
 ! D12   D(6,4,5,8)             57.098          -DE/DX =    0.0                 !
 ! D13   D(6,4,5,9)            177.0277         -DE/DX =    0.0                 !
 ! D14   D(6,4,5,10)           -63.7626         -DE/DX =    0.0                 !
 ! D15   D(7,4,5,8)            -57.1419         -DE/DX =    0.0                 !
 ! D16   D(7,4,5,9)             62.7877         -DE/DX =    0.0                 !
 ! D17   D(7,4,5,10)          -178.0025         -DE/DX =    0.0                 !
 ! D18   D(3,4,6,1)            -41.3415         -DE/DX =    0.0                 !
 ! D19   D(3,4,6,2)            142.0695         -DE/DX =    0.0                 !
 ! D20   D(5,4,6,1)             85.021          -DE/DX =    0.0                 !
 ! D21   D(5,4,6,2)            -91.568          -DE/DX =    0.0                 !
 ! D22   D(7,4,6,1)           -158.2361         -DE/DX =    0.0                 !
 ! D23   D(7,4,6,2)             25.1749         -DE/DX =    0.0                 !
 --------------------------------------------------------------------------------
 GradGradGradGradGradGradGradGradGradGradGradGradGradGradGradGradGradGrad

 Leave Link  103 at Tue Feb 13 19:05:37 2024, MaxMem=  3221225472 cpu:               0.1 elap:               0.0
 (Enter /opt/g16/l9999.exe)

 ----------------------------------------------------------------------

 Electric dipole moment (input orientation):
 (Debye = 10**-18 statcoulomb cm , SI units = C m)
                  (au)            (Debye)         (10**-30 SI)
   Tot        0.101280D+01      0.257428D+01      0.858688D+01
   x         -0.690681D+00     -0.175554D+01     -0.585584D+01
   y         -0.523574D-02     -0.133079D-01     -0.443905D-01
   z         -0.740740D+00     -0.188277D+01     -0.628026D+01

 Dipole polarizability, Alpha (input orientation).
 (esu units = cm**3 , SI units = C**2 m**2 J**-1)
 Alpha(0;0):
               (au)            (10**-24 esu)      (10**-40 SI)
   iso        0.500043D+02      0.740988D+01      0.824460D+01
   aniso      0.103138D+02      0.152834D+01      0.170051D+01
   xx         0.553121D+02      0.819641D+01      0.911974D+01
   yx        -0.432769D+00     -0.641297D-01     -0.713539D-01
   yy         0.493994D+02      0.732023D+01      0.814486D+01
   zx         0.881692D+00      0.130653D+00      0.145371D+00
   zy        -0.302750D+01     -0.448630D+00     -0.499168D+00
   zz         0.453015D+02      0.671300D+01      0.746922D+01

 ----------------------------------------------------------------------

 Dipole orientation:
     8          2.32868350         -1.96949617         -0.01293108
     8          1.31979052          0.80441585         -3.02874670
     7         -2.52983833         -2.21471295          1.41647340
     6         -1.58963766          0.16963001          0.41933560
     6         -0.99513703          2.18696316          2.41287053
     6          0.78020704         -0.27849311         -1.11677266
     1         -2.97383703          0.91537929         -0.91114907
     1         -0.31444878          3.92481021          1.53813764
     1         -2.70172714          2.61910543          3.48400070
     1          0.43934750          1.49228039          3.72174965
     1         -4.09914171         -1.91020681          2.46895711
     1         -1.21358196         -3.02574832          2.54792219
     1          3.81932985         -2.10752303         -1.06360706

 Electric dipole moment (dipole orientation):
 (Debye = 10**-18 statcoulomb cm , SI units = C m)
                  (au)            (Debye)         (10**-30 SI)
   Tot        0.101280D+01      0.257428D+01      0.858688D+01
   x          0.000000D+00      0.000000D+00      0.000000D+00
   y          0.000000D+00      0.000000D+00      0.000000D+00
   z          0.101280D+01      0.257428D+01      0.858688D+01

 Dipole polarizability, Alpha (dipole orientation).
 (esu units = cm**3 , SI units = C**2 m**2 J**-1)
 Alpha(0;0):
               (au)            (10**-24 esu)      (10**-40 SI)
   iso        0.500043D+02      0.740988D+01      0.824460D+01
   aniso      0.103138D+02      0.152834D+01      0.170051D+01
   xx         0.497699D+02      0.737514D+01      0.820595D+01
   yx        -0.172267D+01     -0.255273D+00     -0.284029D+00
   yy         0.494324D+02      0.732512D+01      0.815030D+01
   zx        -0.506873D+01     -0.751109D+00     -0.835721D+00
   zy        -0.250639D+01     -0.371409D+00     -0.413248D+00
   zz         0.508107D+02      0.752937D+01      0.837756D+01

 ----------------------------------------------------------------------
 1\1\GINC-QTCOVIMASTER\Freq\RM062X\def2TZVP\C3H7N1O2\ALEJANDRO\13-Feb-2
 024\0\\#P Geom=AllCheck Guess=TCheck SCRF=Check GenChk RM062X/def2TZVP
  Freq\\5950 alanine\\0,1\O,0.9038311274,1.0397226213,-0.8407432665\O,1
 .6046690157,-0.418808539,0.6981355755\N,-1.4926952223,1.1708085027,0.3
 586768998\C,-0.7663929955,-0.0891972569,0.4118271696\C,-1.2535394831,-
 1.1628016378,-0.5687492809\C,0.7046826111,0.1495843229,0.1499053695\H,
 -0.8211892145,-0.4786935113,1.4283241188\H,-0.6725474605,-2.0807570033
 ,-0.4710906601\H,-2.3001299384,-1.3925692996,-0.3662622571\H,-1.171429
 1471,-0.8003232771,-1.5948911422\H,-2.4795591455,1.0084850101,0.518488
 3396\H,-1.3924390325,1.59546983,-0.5564471847\H,1.859778885,1.11403023
 81,-0.9724136812\\Version=ES64L-G16RevA.03\State=1-A\HF=-323.7437891\R
 MSD=2.552e-09\RMSF=1.949e-06\ZeroPoint=0.1088636\Thermal=0.1156935\Dip
 ole=-0.6906812,-0.0052357,-0.7407404\DipoleDeriv=-0.5102682,-0.218372,
 0.1976704,-0.0803074,-0.7832984,0.443779,0.0861698,0.49245,-0.8490677,
 -1.0419834,0.2620732,-0.3406973,0.1513333,-0.5963361,0.281082,-0.11587
 92,0.2605594,-0.6363668,-0.3943705,0.103579,-0.0379634,0.0871122,-0.72
 41892,-0.1719886,-0.0083909,-0.1653892,-0.3865436,0.1093766,-0.2094349
 ,0.0056871,-0.1967218,0.4954491,0.1328485,0.020774,0.057416,0.1978085,
 -0.0213828,-0.0203484,-0.0264702,0.0628514,-0.0672923,-0.0739225,0.039
 8228,-0.0748465,0.020535,1.3779797,-0.0376066,0.1921404,-0.0900042,0.9
 171699,-0.7425725,0.069504,-0.7919178,1.0404613,0.027268,0.0035266,-0.
 0111518,0.0220303,-0.0044303,0.017925,0.0036264,0.0370849,-0.0587652,0
 .0283178,0.0904937,-0.0121749,0.060024,-0.0740438,-0.0218604,-0.018166
 5,0.0039402,0.0544848,-0.1209632,-0.0521494,0.0171544,-0.0337116,0.050
 1345,-0.015411,0.0310812,-0.0118432,0.0450335,0.0671327,-0.0187026,0.0
 201528,-0.0095023,0.0209702,0.0813277,-0.004736,0.0211672,-0.0772327,0
 .034305,-0.007199,0.0088943,-0.07625,0.1841505,0.0688915,-0.0532074,0.
 0884474,0.2494705,0.1972726,0.0588335,0.0262886,0.0383278,0.250708,-0.
 0045611,0.0067442,0.0775206,0.0689838,0.2473157,0.045307,-0.0395303,0.
 0648183,0.3310081,0.0044625,-0.0573426,0.0054108,0.3311986\Polar=55.31
 21131,-0.4327688,49.3993797,0.8816924,-3.0275031,45.3015426\Quadrupole
 =2.353568,-1.459039,-0.8945291,3.0132841,-2.8074708,-1.150761\PG=C01 [
 X(C3H7N1O2)]\NImag=0\\0.63243787,0.03711943,0.21952622,-0.07325699,-0.
 19776013,0.25912936,0.02724036,0.02920468,-0.03199897,0.54523207,0.033
 81167,-0.03290217,0.06672614,-0.28843689,0.25098076,-0.03691833,0.0666
 6746,-0.04010681,0.27625340,-0.21752213,0.24809869,-0.00373283,-0.0000
 2916,0.00090634,-0.00988744,-0.00257692,-0.00195787,0.61645095,-0.0005
 2922,0.00160502,0.00015255,-0.00111313,0.00022738,-0.00200144,-0.03479
 815,0.39166077,0.00118298,-0.00003318,0.00003393,0.00271036,-0.0001839
 8,0.00242791,-0.11702373,-0.20481991,0.47345332,-0.00801447,-0.0034663
 1,0.00496963,-0.02988901,0.00683827,-0.00390650,-0.12256992,0.04568246
 ,0.00560060,0.51768425,-0.02523250,-0.00495973,0.01594569,0.02137708,0
 .01644494,0.00856105,0.08230280,-0.19101210,0.03946029,-0.01761163,0.4
 8960640,0.03186596,0.01544046,-0.00581978,-0.02375430,0.00958463,0.012
 07112,0.02848599,0.00551406,-0.08450519,-0.02413193,-0.09181396,0.6021
 4276,-0.00114328,-0.00002196,0.00210782,-0.00370968,0.00379428,0.00295
 461,0.00565603,0.02183078,0.01258973,-0.09474219,-0.03486561,-0.030807
 11,0.57504930,0.00071959,0.00133565,-0.00051837,0.00335144,-0.00189763
 ,0.00037379,-0.00224817,-0.03830858,-0.02249316,-0.01938581,-0.1151243
 9,-0.04023612,-0.02886794,0.52375685,0.00166290,0.00090533,-0.00321811
 ,0.00313545,-0.00181326,0.00026273,0.00124071,-0.00112933,0.00385308,-
 0.02100432,-0.04224684,-0.12703942,-0.02223767,-0.05696140,0.52856325,
 -0.14315396,-0.01980295,0.02508901,-0.52574879,0.24289762,-0.23030140,
 -0.02097209,0.00617847,0.00121008,-0.18831553,-0.01560383,0.02803133,-
 0.01226772,-0.01726219,-0.00968177,0.89822413,-0.03220884,-0.15558755,
 0.09815566,0.23005617,-0.23559643,0.15073263,0.03723200,-0.00017322,-0
 .00810529,-0.03310317,-0.08190584,0.00176729,-0.02694245,-0.00808488,0
 .00163984,-0.16071048,0.49884329,0.03754034,0.09792151,-0.17450838,-0.
 21709197,0.14966793,-0.22645166,0.00008434,0.00134475,-0.00135958,0.03
 398904,-0.00259943,-0.08954878,-0.02667070,-0.00570160,0.00597770,0.13
 747936,-0.25621667,0.50685848,-0.00726910,-0.00165559,0.00135702,0.001
 48661,-0.00015810,-0.00237233,0.00164479,0.01219765,-0.01788013,-0.052
 38245,-0.00521415,0.01644778,0.00159483,0.00274137,-0.01281753,-0.0015
 4533,-0.01206033,0.03351705,0.05827545,-0.00162351,0.00047881,0.000173
 97,0.00162191,-0.00006535,-0.00132972,-0.00086577,-0.01923527,0.028507
 81,-0.00527248,-0.07687197,0.08445802,0.00129399,0.00741506,-0.0239247
 2,-0.00206342,-0.00401305,0.00758482,0.00393433,0.09685226,0.00142858,
 -0.00031356,0.00062869,-0.00086183,-0.00108111,0.00223800,-0.00156514,
 0.00177598,0.00303857,0.01993467,0.08972570,-0.28550658,0.00159050,0.0
 0421841,-0.02052381,-0.00154936,0.00332599,-0.00821500,-0.01692131,-0.
 09431057,0.30646153,-0.00006902,0.00020227,-0.00020582,-0.00001823,0.0
 0016613,-0.00001167,0.00088642,-0.00238341,-0.00153054,0.00540164,-0.0
 0908867,0.00294308,-0.12635392,0.12282225,-0.01413741,0.00040727,-0.00
 097021,0.00061974,0.00034126,0.00056312,0.00025979,0.13271742,-0.00047
 784,0.00038487,-0.00030805,-0.00092248,0.00140592,-0.00015622,-0.00109
 169,-0.00524707,-0.00453158,0.01195990,-0.01571782,0.00568562,0.121162
 18,-0.23760143,0.02138663,0.00220636,-0.00210962,0.00101506,0.00003672
 ,0.00068204,-0.00019506,-0.13301791,0.25810769,-0.00001239,0.00019216,
 -0.00028420,0.00008080,0.00047614,-0.00027954,-0.00108195,-0.00545831,
 -0.00194100,0.01336559,-0.01493024,0.00361056,-0.01489812,0.02264356,-
 0.05121463,0.00052121,-0.00049936,0.00109716,0.00048491,0.00077508,0.0
 0026562,0.01583301,-0.02207388,0.05015898,-0.00009651,-0.00022745,0.00
 030187,-0.00070472,0.00002224,0.00022801,0.00251168,0.00064176,0.00023
 321,-0.01184617,-0.00149518,0.00190167,-0.29704924,-0.05305808,0.05182
 188,0.00170244,-0.00044761,-0.00248402,0.00033626,0.00011497,-0.000325
 28,-0.01473885,-0.00421766,0.00325981,0.32065793,-0.00074099,-0.000178
 83,0.00064766,-0.00175453,0.00145290,0.00032558,0.00031647,0.00274125,
 0.00127092,-0.02448016,-0.00834750,0.00297762,-0.05213008,-0.05648208,
 0.01251826,0.00231342,-0.00347560,-0.00381365,0.00088157,0.00087315,0.
 00041127,0.02616644,0.00722915,-0.00595235,0.05931860,0.06012251,-0.00
 057472,-0.00023344,0.00156856,-0.00139086,0.00074492,0.00053754,0.0000
 1094,0.00243028,0.00047256,-0.02447275,-0.00753814,0.00233231,0.052645
 32,0.01209883,-0.05608600,0.00173013,-0.00312828,-0.00455635,0.0001465
 9,0.00100149,0.00098724,-0.00343065,-0.00086556,-0.00046383,-0.0548866
 0,-0.00950073,0.05936695,-0.00013038,-0.00029545,0.00063068,-0.0003025
 5,-0.00033035,0.00039509,-0.00038906,0.00038511,0.00087910,-0.00054099
 ,0.00428943,-0.01201533,-0.04930705,-0.00720382,0.02141673,0.00092994,
 0.00152708,-0.00218273,-0.00005840,-0.00195366,-0.00148055,0.00137588,
 0.00466988,-0.01703887,-0.00101201,-0.01042479,0.02951501,0.04911818,0
 .00009061,-0.00030292,-0.00017669,-0.00006972,0.00002596,0.00014261,-0
 .00026323,0.00303126,0.00087003,0.00162065,0.00663897,-0.02400362,-0.0
 0636805,-0.07885990,0.08806974,0.00096936,0.00118809,-0.00025025,-0.00
 176943,-0.00307521,-0.00325295,-0.00406088,-0.00780291,0.02497140,0.00
 019985,-0.00310243,0.00515684,0.00953499,0.08284171,-0.00008983,-0.000
 28737,0.00129344,-0.00044112,-0.00037432,0.00058773,0.00038971,0.00054
 233,0.00310583,-0.00010523,0.00783833,-0.02241098,0.02088697,0.0863746
 0,-0.28258748,0.00157195,0.00141664,-0.00209770,-0.00180321,-0.0035589
 4,-0.00099441,0.00005422,0.00009034,-0.00086458,-0.00002754,0.00137560
 ,-0.00457633,-0.02069622,-0.09211937,0.30869600,0.00008644,-0.00016511
 ,0.00007656,-0.00190958,0.00005010,-0.00014378,-0.41353334,-0.04963840
 ,0.07852972,-0.01951309,-0.00623008,0.00093509,0.00234211,-0.00141305,
 0.00027169,0.00153287,0.00331163,-0.00149710,0.00016171,0.00000232,-0.
 00024860,0.00014236,-0.00042280,-0.00044833,0.00024608,0.00067458,0.00
 068259,-0.00003577,0.00018835,0.00007545,0.43378487,-0.00059504,0.0012
 9603,-0.00019760,0.00234576,0.00093252,0.00019731,-0.07711554,-0.05423
 541,0.03969657,0.03840107,0.00115441,-0.00912810,0.00116392,0.00213546
 ,0.00011292,0.00035268,-0.00761770,0.00142653,-0.00052620,0.00073612,0
 .00050839,-0.00042605,0.00013066,0.00034957,-0.00090214,-0.00068863,-0
 .00009208,-0.00015832,-0.00010084,-0.00011683,0.05488929,0.05955528,0.
 00052251,-0.00034925,0.00029075,-0.00119098,-0.00037654,-0.00002643,0.
 03822441,0.02784531,-0.04109254,-0.00137510,-0.00332969,0.00002484,0.0
 0042200,0.00116406,-0.00022323,0.00056545,0.00194444,-0.00053235,-0.00
 032513,-0.00005624,-0.00007732,-0.00034042,0.00030549,0.00021124,-0.00
 002528,-0.00046012,0.00024315,0.00022404,-0.00011014,-0.00020927,-0.07
 355530,-0.03089487,0.04742679,-0.00179500,-0.00146732,0.00164370,0.000
 20848,-0.00161414,0.00188432,-0.05691644,0.00163578,0.03384643,0.00229
 169,0.00740101,-0.02102910,-0.00022562,-0.00017876,0.00039022,0.001484
 43,0.00452871,-0.00532474,-0.00235356,0.00442096,-0.00020018,-0.000051
 98,0.00016922,-0.00006952,-0.00007576,-0.00021482,0.00015001,0.0004445
 6,-0.00006030,0.00033997,-0.00346740,-0.01750946,0.03685206,0.06052027
 ,-0.00086143,-0.00089116,-0.00001790,-0.00032183,0.00004188,-0.0001846
 4,-0.00181599,-0.09077709,0.13082430,-0.00207560,-0.01929064,0.0331057
 5,-0.00093823,0.00142527,0.00153430,0.00097506,0.00094012,0.00058062,0
 .00298920,-0.00364619,-0.00104906,0.00011060,0.00071411,-0.00049535,-0
 .00006831,-0.00024365,-0.00013726,0.00003714,-0.00050736,-0.00108746,-
 0.00134891,-0.00350304,0.00458872,0.00345520,0.11537110,0.00188009,-0.
 00077277,-0.00036761,-0.00000634,-0.00024187,0.00026857,0.05362354,0.1
 7376602,-0.35765785,-0.00218724,-0.00424039,-0.00381792,0.00070468,-0.
 00112722,0.00239182,-0.00013258,0.00154396,-0.00067522,-0.00064557,0.0
 0032725,0.00178775,-0.00004064,-0.00030737,-0.00038230,-0.00000711,0.0
 0009848,-0.00003224,0.00035901,0.00051923,-0.00009528,-0.00461749,-0.0
 0188006,-0.00611577,-0.04891146,-0.16735644,0.36468965,-0.49436014,-0.
 03939508,0.06837915,-0.00199751,0.00553609,-0.00610354,0.00085127,-0.0
 0008971,-0.00034783,0.00243622,-0.00002867,0.00112688,0.00015642,-0.00
 001682,-0.00006089,-0.01227768,-0.01021249,0.01202141,-0.00023206,-0.0
 0017277,-0.00006127,-0.00004025,-0.00005387,0.00000384,0.00006885,0.00
 007429,-0.00012502,-0.00009236,-0.00001219,-0.00015511,0.00016274,0.00
 008003,0.00000174,-0.00006367,-0.00013690,-0.00001888,0.50538817,-0.00
 947192,-0.02980425,0.01717706,0.00466152,-0.00105070,-0.00580627,0.000
 95334,-0.00027693,-0.00046284,0.00089282,-0.00061472,0.00664835,0.0008
 8917,0.00029060,-0.00009147,-0.04045011,-0.00240763,0.00904036,-0.0013
 9703,-0.00013042,0.00023660,-0.00008368,-0.00017559,0.00000158,0.00011
 901,0.00009975,0.00006315,-0.00007723,0.00002558,-0.00009355,0.0001020
 8,0.00020514,-0.00027117,-0.00056607,0.00036665,-0.00032882,0.04442811
 ,0.03347251,0.03476891,0.01862279,-0.03863985,-0.00544364,-0.00560654,
 0.00037216,-0.00133730,0.00003771,0.00017096,-0.00067644,0.00516763,-0
 .00153294,0.00071197,0.00016462,-0.00015590,0.04546660,0.00742315,-0.0
 0598833,0.00081186,0.00035175,-0.00009028,-0.00001269,-0.00004542,0.00
 008652,0.00000938,0.00010147,0.00020645,-0.00000597,0.00018317,0.00015
 304,-0.00006050,0.00001824,0.00008014,0.00042829,-0.00030557,0.0000064
 0,-0.07466048,-0.02611298,0.04533163\\-0.00000122,-0.00000141,0.,-0.00
 000026,-0.00000024,-0.00000035,0.00000003,0.00000100,0.00000035,0.0000
 0011,-0.00000476,-0.00000078,0.00000172,0.00000135,0.00000378,0.000003
 65,0.00000595,-0.00000243,0.00000259,-0.00000027,0.00000063,0.00000015
 ,-0.00000045,-0.00000039,0.00000026,-0.00000230,0.00000128,-0.00000047
 ,-0.00000084,0.00000009,-0.00000249,-0.00000087,0.00000163,-0.00000120
 ,0.00000168,-0.00000182,-0.00000287,0.00000116,-0.00000200\\\@


 THE MOST SERIOUS THREAT TO THE SURVIVAL OF MANKIND IS NOT NOW
 IGNORANCE IN THE TRADITIONAL SENSE,
 BUT A MORALLY NEUTRAL, AN INSENSITIVE OR INHIBITED HUMAN INTELLIGENCE.

                     -- MARGO JEFFERSON IN NEWSWEEK, SEPTEMBER 2, 1974
 Job cpu time:       0 days  0 hours 26 minutes 23.2 seconds.
 Elapsed time:       0 days  0 hours  3 minutes 17.9 seconds.
 File lengths (MBytes):  RWF=     69 Int=      0 D2E=      0 Chk=      5 Scr=      1
 Normal termination of Gaussian 16 at Tue Feb 13 19:05:37 2024.
