 Entering Gaussian System, Link 0=/usr/local/g16_bin/g16.exe
 Input=alanine_conf2.com
 Output=alanine_conf2.log
 Initial command:
 /usr/local/g16_bin/l1.exe "/scratch/16209.qtcovimaster/Gau-160753.inp" -scrdir="/scratch/16209.qtcovimaster/"
 Default is to use a total of   8 processors:
                                8 via shared-memory
                                1 via Linda
 Entering Link 1 = /usr/local/g16_bin/l1.exe PID=    160754.
  
 Copyright (c) 1988-2019, Gaussian, Inc.  All Rights Reserved.
  
 This is part of the Gaussian(R) 16 program.  It is based on
 the Gaussian(R) 09 system (copyright 2009, Gaussian, Inc.),
 the Gaussian(R) 03 system (copyright 2003, Gaussian, Inc.),
 the Gaussian(R) 98 system (copyright 1998, Gaussian, Inc.),
 the Gaussian(R) 94 system (copyright 1995, Gaussian, Inc.),
 the Gaussian 92(TM) system (copyright 1992, Gaussian, Inc.),
 the Gaussian 90(TM) system (copyright 1990, Gaussian, Inc.),
 the Gaussian 88(TM) system (copyright 1988, Gaussian, Inc.),
 the Gaussian 86(TM) system (copyright 1986, Carnegie Mellon
 University), and the Gaussian 82(TM) system (copyright 1983,
 Carnegie Mellon University). Gaussian is a federally registered
 trademark of Gaussian, Inc.
  
 This software contains proprietary and confidential information,
 including trade secrets, belonging to Gaussian, Inc.
  
 This software is provided under written license and may be
 used, copied, transmitted, or stored only in accord with that
 written license.
  
 The following legend is applicable only to US Government
 contracts under FAR:
  
                    RESTRICTED RIGHTS LEGEND
  
 Use, reproduction and disclosure by the US Government is
 subject to restrictions as set forth in subparagraphs (a)
 and (c) of the Commercial Computer Software - Restricted
 Rights clause in FAR 52.227-19.
  
 Gaussian, Inc.
 340 Quinnipiac St., Bldg. 40, Wallingford CT 06492
  
  
 ---------------------------------------------------------------
 Warning -- This program may not be used in any manner that
 competes with the business of Gaussian, Inc. or will provide
 assistance to any competitor of Gaussian, Inc.  The licensee
 of this program is prohibited from giving any competitor of
 Gaussian, Inc. access to this program.  By using this program,
 the user acknowledges that Gaussian, Inc. is engaged in the
 business of creating and licensing software in the field of
 computational chemistry and represents and warrants to the
 licensee that it is not a competitor of Gaussian, Inc. and that
 it will not use this program in any manner prohibited above.
 ---------------------------------------------------------------
  

 Cite this work as:
 Gaussian 16, Revision C.01,
 M. J. Frisch, G. W. Trucks, H. B. Schlegel, G. E. Scuseria, 
 M. A. Robb, J. R. Cheeseman, G. Scalmani, V. Barone, 
 G. A. Petersson, H. Nakatsuji, X. Li, M. Caricato, A. V. Marenich, 
 J. Bloino, B. G. Janesko, R. Gomperts, B. Mennucci, H. P. Hratchian, 
 J. V. Ortiz, A. F. Izmaylov, J. L. Sonnenberg, D. Williams-Young, 
 F. Ding, F. Lipparini, F. Egidi, J. Goings, B. Peng, A. Petrone, 
 T. Henderson, D. Ranasinghe, V. G. Zakrzewski, J. Gao, N. Rega, 
 G. Zheng, W. Liang, M. Hada, M. Ehara, K. Toyota, R. Fukuda, 
 J. Hasegawa, M. Ishida, T. Nakajima, Y. Honda, O. Kitao, H. Nakai, 
 T. Vreven, K. Throssell, J. A. Montgomery, Jr., J. E. Peralta, 
 F. Ogliaro, M. J. Bearpark, J. J. Heyd, E. N. Brothers, K. N. Kudin, 
 V. N. Staroverov, T. A. Keith, R. Kobayashi, J. Normand, 
 K. Raghavachari, A. P. Rendell, J. C. Burant, S. S. Iyengar, 
 J. Tomasi, M. Cossi, J. M. Millam, M. Klene, C. Adamo, R. Cammi, 
 J. W. Ochterski, R. L. Martin, K. Morokuma, O. Farkas, 
 J. B. Foresman, and D. J. Fox, Gaussian, Inc., Wallingford CT, 2019.
 
 ******************************************
 Gaussian 16:  ES64L-G16RevC.01  3-Jul-2019
                13-Feb-2024 
 ******************************************
 %mem=48GB
 %nproc=16
 Will use up to   16 processors via shared memory.
 Default route: Maxdisk=400Gb
 --------------------------
 #p m062X def2TZVP opt freq
 --------------------------
 1/18=20,19=15,26=3,38=1/1,3;
 2/9=110,12=2,17=6,18=5,40=1/2;
 3/5=44,7=101,11=2,25=1,30=1,71=1,74=-55/1,2,3;
 4//1;
 5/5=2,38=5/2;
 6/7=2,8=2,9=2,10=2,28=1/1;
 7//1,2,3,16;
 1/18=20,19=15,26=3/3(2);
 2/9=110/2;
 99//99;
 2/9=110/2;
 3/5=44,7=101,11=2,25=1,30=1,71=1,74=-55/1,2,3;
 4/5=5,16=3,69=1/1;
 5/5=2,38=5/2;
 7//1,2,3,16;
 1/18=20,19=15,26=3/3(-5);
 2/9=110/2;
 6/7=2,8=2,9=2,10=2,19=2,28=1/1;
 99/9=1/99;
 Leave Link    1 at Tue Feb 13 18:26:57 2024, MaxMem=  6442450944 cpu:               0.7 elap:               0.1
 (Enter /usr/local/g16_bin/l101.exe)
 ------------
 5950 alanine
 ------------
 Symbolic Z-matrix:
 Charge =  0 Multiplicity = 1
 O                     0.86351   0.44802  -1.27516 
 O                     1.70671  -0.04885   0.77548 
 N                    -1.4105    1.1507    0.1821 
 C                    -0.7085   -0.1136    0.3937 
 C                    -1.3345   -1.2      -0.4702 
 C                     0.747     0.0903    0.0308 
 H                    -0.7666   -0.3737    1.4558 
 H                    -0.858    -2.1695   -0.2878 
 H                    -2.4023   -1.3127   -0.2521 
 H                    -1.2248   -0.9797   -1.5384 
 H                    -2.3916    1.042     0.4376 
 H                    -1.4071    1.3875   -0.8099 
 H                     1.79997   0.58124  -1.53533 
 
 ITRead=  0  0  0  0  0  0  0  0  0  0  0  0  0
 MicOpt= -1 -1 -1 -1 -1 -1 -1 -1 -1 -1 -1 -1 -1
 NAtoms=     13 NQM=       13 NQMF=       0 NMMI=      0 NMMIF=      0
                NMic=       0 NMicF=      0.
                    Isotopes and Nuclear Properties:
 (Nuclear quadrupole moments (NQMom) in fm**2, nuclear magnetic moments (NMagM)
  in nuclear magnetons)

  Atom         1           2           3           4           5           6           7           8           9          10
 IAtWgt=          16          16          14          12          12          12           1           1           1           1
 AtmWgt=  15.9949146  15.9949146  14.0030740  12.0000000  12.0000000  12.0000000   1.0078250   1.0078250   1.0078250   1.0078250
 NucSpn=           0           0           2           0           0           0           1           1           1           1
 AtZEff=   0.0000000   0.0000000   0.0000000   0.0000000   0.0000000   0.0000000   0.0000000   0.0000000   0.0000000   0.0000000
 NQMom=    0.0000000   0.0000000   2.0440000   0.0000000   0.0000000   0.0000000   0.0000000   0.0000000   0.0000000   0.0000000
 NMagM=    0.0000000   0.0000000   0.4037610   0.0000000   0.0000000   0.0000000   2.7928460   2.7928460   2.7928460   2.7928460
 AtZNuc=   8.0000000   8.0000000   7.0000000   6.0000000   6.0000000   6.0000000   1.0000000   1.0000000   1.0000000   1.0000000

  Atom        11          12          13
 IAtWgt=           1           1           1
 AtmWgt=   1.0078250   1.0078250   1.0078250
 NucSpn=           1           1           1
 AtZEff=   0.0000000   0.0000000   0.0000000
 NQMom=    0.0000000   0.0000000   0.0000000
 NMagM=    2.7928460   2.7928460   2.7928460
 AtZNuc=   1.0000000   1.0000000   1.0000000
 Leave Link  101 at Tue Feb 13 18:26:58 2024, MaxMem=  6442450944 cpu:               2.2 elap:               0.5
 (Enter /usr/local/g16_bin/l103.exe)

 GradGradGradGradGradGradGradGradGradGradGradGradGradGradGradGradGradGrad
 Berny optimization.
 Initialization pass.
                           ----------------------------
                           !    Initial Parameters    !
                           ! (Angstroms and Degrees)  !
 --------------------------                            --------------------------
 ! Name  Definition              Value          Derivative Info.                !
 --------------------------------------------------------------------------------
 ! R1    R(1,6)                  1.3591         estimate D2E/DX2                !
 ! R2    R(1,13)                 0.981          estimate D2E/DX2                !
 ! R3    R(2,6)                  1.2227         estimate D2E/DX2                !
 ! R4    R(3,4)                  1.4615         estimate D2E/DX2                !
 ! R5    R(3,11)                 1.0196         estimate D2E/DX2                !
 ! R6    R(3,12)                 1.0199         estimate D2E/DX2                !
 ! R7    R(4,5)                  1.5227         estimate D2E/DX2                !
 ! R8    R(4,6)                  1.5139         estimate D2E/DX2                !
 ! R9    R(4,7)                  1.095          estimate D2E/DX2                !
 ! R10   R(5,8)                  1.0956         estimate D2E/DX2                !
 ! R11   R(5,9)                  1.0957         estimate D2E/DX2                !
 ! R12   R(5,10)                 1.0962         estimate D2E/DX2                !
 ! A1    A(6,1,13)             111.8648         estimate D2E/DX2                !
 ! A2    A(4,3,11)             109.4917         estimate D2E/DX2                !
 ! A3    A(4,3,12)             109.8815         estimate D2E/DX2                !
 ! A4    A(11,3,12)            105.7649         estimate D2E/DX2                !
 ! A5    A(3,4,5)              109.7306         estimate D2E/DX2                !
 ! A6    A(3,4,6)              108.0946         estimate D2E/DX2                !
 ! A7    A(3,4,7)              108.6883         estimate D2E/DX2                !
 ! A8    A(5,4,6)              110.8161         estimate D2E/DX2                !
 ! A9    A(5,4,7)              111.0399         estimate D2E/DX2                !
 ! A10   A(6,4,7)              108.392          estimate D2E/DX2                !
 ! A11   A(4,5,8)              110.9848         estimate D2E/DX2                !
 ! A12   A(4,5,9)              111.1692         estimate D2E/DX2                !
 ! A13   A(4,5,10)             111.6138         estimate D2E/DX2                !
 ! A14   A(8,5,9)              107.4403         estimate D2E/DX2                !
 ! A15   A(8,5,10)             107.2511         estimate D2E/DX2                !
 ! A16   A(9,5,10)             108.1906         estimate D2E/DX2                !
 ! A17   A(1,6,2)              123.2244         estimate D2E/DX2                !
 ! A18   A(1,6,4)              110.3789         estimate D2E/DX2                !
 ! A19   A(2,6,4)              126.394          estimate D2E/DX2                !
 ! D1    D(13,1,6,2)            -0.2585         estimate D2E/DX2                !
 ! D2    D(13,1,6,4)          -179.6906         estimate D2E/DX2                !
 ! D3    D(11,3,4,5)            60.1152         estimate D2E/DX2                !
 ! D4    D(11,3,4,6)          -178.9298         estimate D2E/DX2                !
 ! D5    D(11,3,4,7)           -61.4826         estimate D2E/DX2                !
 ! D6    D(12,3,4,5)           -55.6367         estimate D2E/DX2                !
 ! D7    D(12,3,4,6)            65.3183         estimate D2E/DX2                !
 ! D8    D(12,3,4,7)          -177.2346         estimate D2E/DX2                !
 ! D9    D(3,4,5,8)           -176.9764         estimate D2E/DX2                !
 ! D10   D(3,4,5,9)            -57.4537         estimate D2E/DX2                !
 ! D11   D(3,4,5,10)            63.445          estimate D2E/DX2                !
 ! D12   D(6,4,5,8)             63.7254         estimate D2E/DX2                !
 ! D13   D(6,4,5,9)           -176.7519         estimate D2E/DX2                !
 ! D14   D(6,4,5,10)           -55.8532         estimate D2E/DX2                !
 ! D15   D(7,4,5,8)            -56.7989         estimate D2E/DX2                !
 ! D16   D(7,4,5,9)             62.7238         estimate D2E/DX2                !
 ! D17   D(7,4,5,10)          -176.3775         estimate D2E/DX2                !
 ! D18   D(3,4,6,1)            -60.8674         estimate D2E/DX2                !
 ! D19   D(3,4,6,2)            119.7228         estimate D2E/DX2                !
 ! D20   D(5,4,6,1)             59.4101         estimate D2E/DX2                !
 ! D21   D(5,4,6,2)           -119.9998         estimate D2E/DX2                !
 ! D22   D(7,4,6,1)           -178.505          estimate D2E/DX2                !
 ! D23   D(7,4,6,2)              2.0851         estimate D2E/DX2                !
 --------------------------------------------------------------------------------
 Trust Radius=3.00D-01 FncErr=1.00D-07 GrdErr=1.00D-06 EigMax=2.50D+02 EigMin=1.00D-04
 Number of steps in this run=     64 maximum allowed number of steps=    100.
 GradGradGradGradGradGradGradGradGradGradGradGradGradGradGradGradGradGrad

 Leave Link  103 at Tue Feb 13 18:26:58 2024, MaxMem=  6442450944 cpu:               0.2 elap:               0.1
 (Enter /usr/local/g16_bin/l202.exe)
                          Input orientation:                          
 ---------------------------------------------------------------------
 Center     Atomic      Atomic             Coordinates (Angstroms)
 Number     Number       Type             X           Y           Z
 ---------------------------------------------------------------------
      1          8           0        0.863510    0.448020   -1.275160
      2          8           0        1.706710   -0.048850    0.775480
      3          7           0       -1.410500    1.150700    0.182100
      4          6           0       -0.708500   -0.113600    0.393700
      5          6           0       -1.334500   -1.200000   -0.470200
      6          6           0        0.747000    0.090300    0.030800
      7          1           0       -0.766600   -0.373700    1.455800
      8          1           0       -0.858000   -2.169500   -0.287800
      9          1           0       -2.402300   -1.312700   -0.252100
     10          1           0       -1.224800   -0.979700   -1.538400
     11          1           0       -2.391600    1.042000    0.437600
     12          1           0       -1.407100    1.387500   -0.809900
     13          1           0        1.799970    0.581240   -1.535330
 ---------------------------------------------------------------------
                    Distance matrix (angstroms):
                    1          2          3          4          5
     1  O    0.000000
     2  O    2.272221   0.000000
     3  N    2.790786   3.392347   0.000000
     4  C    2.360450   2.446056   1.461517   0.000000
     5  C    2.862722   3.482215   2.440709   1.522650   0.000000
     6  C    1.359069   1.222683   2.408764   1.513853   2.499703
     7  H    3.284909   2.585658   2.088232   1.095027   2.171349
     8  H    3.284796   3.493631   3.398498   2.171064   1.095560
     9  H    3.848675   4.420091   2.690824   2.173444   1.095658
    10  H    2.543368   3.848931   2.744669   2.179382   1.096183
    11  H    3.725869   4.254440   1.019634   2.042098   2.639721
    12  H    2.500952   3.777876   1.019877   2.046948   2.610713
    13  H    0.981016   2.396988   3.685237   3.239812   3.759285
                    6          7          8          9         10
     6  C    0.000000
     7  H    2.130001   0.000000
     8  H    2.790023   2.504674   0.000000
     9  H    3.459268   2.544437   1.766421   0.000000
    10  H    2.737752   3.089080   1.764700   1.775377   0.000000
    11  H    3.304849   2.383603   3.632061   2.453653   3.058311
    12  H    2.651349   2.940317   3.636805   2.931321   2.483462
    13  H    1.950008   4.055373   4.023395   4.784638   3.403789
                   11         12         13
    11  H    0.000000
    12  H    1.626305   0.000000
    13  H    4.655536   3.385499   0.000000
 Stoichiometry    C3H7NO2
 Framework group  C1[X(C3H7NO2)]
 Deg. of freedom    33
 Full point group                 C1      NOp   1
 Largest Abelian subgroup         C1      NOp   1
 Largest concise Abelian subgroup C1      NOp   1
                         Standard orientation:                         
 ---------------------------------------------------------------------
 Center     Atomic      Atomic             Coordinates (Angstroms)
 Number     Number       Type             X           Y           Z
 ---------------------------------------------------------------------
      1          8           0        0.973525   -0.186409    1.198643
      2          8           0        1.791024    0.176543   -0.890125
      3          7           0       -1.201435   -1.256909   -0.184133
      4          6           0       -0.623756    0.041800   -0.524244
      5          6           0       -1.364362    1.144600    0.219932
      6          6           0        0.839800    0.021121   -0.137814
      7          1           0       -0.693021    0.183688   -1.607828
      8          1           0       -0.982628    2.132305   -0.061086
      9          1           0       -2.435098    1.128239   -0.011850
     10          1           0       -1.247724    1.047825    1.305587
     11          1           0       -2.185010   -1.272542   -0.452440
     12          1           0       -1.187959   -1.388381    0.827145
     13          1           0        1.915015   -0.198966    1.474018
 ---------------------------------------------------------------------
 Rotational constants (GHZ):           5.2088534           2.6845610           2.6579061
 Leave Link  202 at Tue Feb 13 18:26:58 2024, MaxMem=  6442450944 cpu:               0.3 elap:               0.1
 (Enter /usr/local/g16_bin/l301.exe)
 Standard basis: def2TZVP (5D, 7F)
 Ernie: Thresh=  0.10000D-02 Tol=  0.10000D-05 Strict=F.
 There are   258 symmetry adapted cartesian basis functions of A   symmetry.
 There are   228 symmetry adapted basis functions of A   symmetry.
   228 basis functions,   362 primitive gaussians,   258 cartesian basis functions
    24 alpha electrons       24 beta electrons
       nuclear repulsion energy       249.7904071317 Hartrees.
 IExCor= 4336 DFT=T Ex+Corr=M062X ExCW=0 ScaHFX=  0.540000
 ScaDFX=  1.000000  1.000000  1.000000  1.000000 ScalE2=  1.000000  1.000000
 IRadAn=      5 IRanWt=     -1 IRanGd=            0 ICorTp=0 IEmpDi=  4
 NAtoms=   13 NActive=   13 NUniq=   13 SFac= 1.00D+00 NAtFMM=   60 NAOKFM=F Big=F
 Integral buffers will be    131072 words long.
 Raffenetti 2 integral format.
 Two-electron integral symmetry is turned on.
 Leave Link  301 at Tue Feb 13 18:26:58 2024, MaxMem=  6442450944 cpu:               0.6 elap:               0.2
 (Enter /usr/local/g16_bin/l302.exe)
 NPDir=0 NMtPBC=     1 NCelOv=     1 NCel=       1 NClECP=     1 NCelD=      1
         NCelK=      1 NCelE2=     1 NClLst=     1 CellRange=     0.0.
 One-electron integrals computed using PRISM.
 One-electron integral symmetry used in STVInt
   1 Symmetry operations used in ECPInt.
 ECPInt:  NShTT=    4465 NPrTT=   13356 LenC2=    4425 LenP2D=   10978.
 LDataN:  DoStor=T MaxTD1= 6 Len=  172
 GSVD:  received Info=                   1 from GESDD.
 NBasis=   228 RedAO= T EigKep=  1.77D-04  NBF=   228
 NBsUse=   228 1.00D-06 EigRej= -1.00D+00 NBFU=   228
 Precomputing XC quadrature grid using
 IXCGrd= 4 IRadAn=           5 IRanWt=          -1 IRanGd=           0 AccXCQ= 0.00D+00.
 Generated NRdTot=       0 NPtTot=           0 NUsed=           0 NTot=          32
 NSgBfM=   257   257   257   257   257 MxSgAt=    13 MxSgA2=    13.
 Leave Link  302 at Tue Feb 13 18:26:59 2024, MaxMem=  6442450944 cpu:               4.0 elap:               0.4
 (Enter /usr/local/g16_bin/l303.exe)
 DipDrv:  MaxL=1.
 Leave Link  303 at Tue Feb 13 18:26:59 2024, MaxMem=  6442450944 cpu:               0.5 elap:               0.2
 (Enter /usr/local/g16_bin/l401.exe)
 ExpMin= 9.52D-02 ExpMax= 2.70D+04 ExpMxC= 9.22D+02 IAcc=3 IRadAn=         5 AccDes= 0.00D+00
 Harris functional with IExCor= 1009 and IRadAn=       5 diagonalized for initial guess.
 HarFok:  IExCor= 1009 AccDes= 0.00D+00 IRadAn=         5 IDoV= 1 UseB2=F ITyADJ=14
 ICtDFT=  3500011 ScaDFX=  1.000000  1.000000  1.000000  1.000000
 FoFCou: FMM=F IPFlag=           0 FMFlag=      100000 FMFlg1=           0
         NFxFlg=           0 DoJE=T BraDBF=F KetDBF=T FulRan=T
         wScrn=  0.000000 ICntrl=       500 IOpCl=  0 I1Cent=   200000004 NGrid=           0
         NMat0=    1 NMatS0=      1 NMatT0=    0 NMatD0=    1 NMtDS0=    0 NMtDT0=    0
 Petite list used in FoFCou.
 Harris En= -323.614281547903    
 JPrj=0 DoOrth=F DoCkMO=F.
 Leave Link  401 at Tue Feb 13 18:27:00 2024, MaxMem=  6442450944 cpu:              10.5 elap:               0.9
 (Enter /usr/local/g16_bin/l502.exe)
 Integral symmetry usage will be decided dynamically.
 Closed shell SCF:
 Using DIIS extrapolation, IDIIS=  1040.
 NGot=  6442450944 LenX=  6442310950 LenY=  6442243945
 Requested convergence on RMS density matrix=1.00D-08 within 128 cycles.
 Requested convergence on MAX density matrix=1.00D-06.
 Requested convergence on             energy=1.00D-06.
 No special actions if energy rises.
 Fock matrices will be formed incrementally for  20 cycles.
 Integral accuracy reduced to 1.0D-05 until final iterations.

 Cycle   1  Pass 0  IDiag  1:
 FoFJK:  IHMeth= 1 ICntrl=       0 DoSepK=F KAlg= 0 I1Cent=           0 FoldK=F
 IRaf= 980000000 NMat=       1 IRICut=       1 DoRegI=T DoRafI=F ISym2E= 0 IDoP0=0 IntGTp=1.
 FoFCou: FMM=F IPFlag=           0 FMFlag=      100000 FMFlg1=           0
         NFxFlg=           0 DoJE=F BraDBF=F KetDBF=F FulRan=T
         wScrn=  0.000000 ICntrl=         0 IOpCl=  0 I1Cent=           0 NGrid=           0
         NMat0=    1 NMatS0=      1 NMatT0=    0 NMatD0=    1 NMtDS0=    0 NMtDT0=    0
 Symmetry not used in FoFCou.
 E= -323.525796485432    
 DIIS: error= 2.49D-02 at cycle   1 NSaved=   1.
 NSaved= 1 IEnMin= 1 EnMin= -323.525796485432     IErMin= 1 ErrMin= 2.49D-02
 ErrMax= 2.49D-02  0.00D+00 EMaxC= 1.00D-01 BMatC= 3.05D-01 BMatP= 3.05D-01
 IDIUse=3 WtCom= 7.51D-01 WtEn= 2.49D-01
 Coeff-Com:  0.100D+01
 Coeff-En:   0.100D+01
 Coeff:      0.100D+01
 Gap=     0.284 Goal=   None    Shift=    0.000
 DSYEVD-2 returned Info=       46028 IAlg= 4 N=   228 NDim=   228 NE2=    28255454 trying  DSYEV.
 GapD=    0.284 DampG=1.000 DampE=0.500 DampFc=0.5000 IDamp=-1.
 Damping current iteration by 5.00D-01
 RMSDP=3.93D-03 MaxDP=2.60D-01              OVMax= 1.84D-01

 Cycle   2  Pass 0  IDiag  1:
 RMSU=  1.96D-03    CP:  9.84D-01
 E= -323.626323711879     Delta-E=       -0.100527226447 Rises=F Damp=T
 DIIS: error= 7.17D-03 at cycle   2 NSaved=   2.
 NSaved= 2 IEnMin= 2 EnMin= -323.626323711879     IErMin= 2 ErrMin= 7.17D-03
 ErrMax= 7.17D-03  0.00D+00 EMaxC= 1.00D-01 BMatC= 2.22D-02 BMatP= 3.05D-01
 IDIUse=3 WtCom= 9.28D-01 WtEn= 7.17D-02
 Coeff-Com:  0.258D-02 0.997D+00
 Coeff-En:   0.212D-01 0.979D+00
 Coeff:      0.391D-02 0.996D+00
 Gap=     0.363 Goal=   None    Shift=    0.000
 DSYEVD-2 returned Info=       46028 IAlg= 4 N=   228 NDim=   228 NE2=    28255454 trying  DSYEV.
 RMSDP=9.21D-04 MaxDP=4.18D-02 DE=-1.01D-01 OVMax= 1.04D-01

 Cycle   3  Pass 0  IDiag  1:
 RMSU=  8.79D-04    CP:  9.80D-01  8.62D-01
 E= -323.731253063444     Delta-E=       -0.104929351565 Rises=F Damp=F
 DIIS: error= 4.20D-03 at cycle   3 NSaved=   3.
 NSaved= 3 IEnMin= 3 EnMin= -323.731253063444     IErMin= 3 ErrMin= 4.20D-03
 ErrMax= 4.20D-03  0.00D+00 EMaxC= 1.00D-01 BMatC= 1.05D-02 BMatP= 2.22D-02
 IDIUse=3 WtCom= 9.58D-01 WtEn= 4.20D-02
 Coeff-Com: -0.560D-01 0.401D+00 0.655D+00
 Coeff-En:   0.000D+00 0.000D+00 0.100D+01
 Coeff:     -0.536D-01 0.385D+00 0.669D+00
 Gap=     0.358 Goal=   None    Shift=    0.000
 DSYEVD-2 returned Info=       46028 IAlg= 4 N=   228 NDim=   228 NE2=    28255454 trying  DSYEV.
 RMSDP=4.00D-04 MaxDP=1.66D-02 DE=-1.05D-01 OVMax= 4.65D-02

 Cycle   4  Pass 0  IDiag  1:
 RMSU=  3.51D-04    CP:  9.81D-01  9.30D-01  8.44D-01
 E= -323.736371134078     Delta-E=       -0.005118070634 Rises=F Damp=F
 DIIS: error= 2.24D-03 at cycle   4 NSaved=   4.
 NSaved= 4 IEnMin= 4 EnMin= -323.736371134078     IErMin= 4 ErrMin= 2.24D-03
 ErrMax= 2.24D-03  0.00D+00 EMaxC= 1.00D-01 BMatC= 3.43D-03 BMatP= 1.05D-02
 IDIUse=3 WtCom= 9.78D-01 WtEn= 2.24D-02
 Coeff-Com: -0.264D-01 0.711D-01 0.391D+00 0.565D+00
 Coeff-En:   0.000D+00 0.000D+00 0.261D+00 0.739D+00
 Coeff:     -0.258D-01 0.695D-01 0.388D+00 0.569D+00
 Gap=     0.354 Goal=   None    Shift=    0.000
 DSYEVD-2 returned Info=       46028 IAlg= 4 N=   228 NDim=   228 NE2=    28255454 trying  DSYEV.
 RMSDP=1.97D-04 MaxDP=9.59D-03 DE=-5.12D-03 OVMax= 1.48D-02

 Cycle   5  Pass 0  IDiag  1:
 RMSU=  8.46D-05    CP:  9.80D-01  8.95D-01  9.39D-01  5.98D-01
 E= -323.738823274290     Delta-E=       -0.002452140212 Rises=F Damp=F
 DIIS: error= 4.08D-04 at cycle   5 NSaved=   5.
 NSaved= 5 IEnMin= 5 EnMin= -323.738823274290     IErMin= 5 ErrMin= 4.08D-04
 ErrMax= 4.08D-04  0.00D+00 EMaxC= 1.00D-01 BMatC= 7.22D-05 BMatP= 3.43D-03
 IDIUse=3 WtCom= 9.96D-01 WtEn= 4.08D-03
 Coeff-Com: -0.780D-02 0.135D-01 0.141D+00 0.242D+00 0.612D+00
 Coeff-En:   0.000D+00 0.000D+00 0.000D+00 0.000D+00 0.100D+01
 Coeff:     -0.777D-02 0.135D-01 0.140D+00 0.241D+00 0.614D+00
 Gap=     0.355 Goal=   None    Shift=    0.000
 DSYEVD-2 returned Info=       46028 IAlg= 4 N=   228 NDim=   228 NE2=    28255454 trying  DSYEV.
 RMSDP=3.02D-05 MaxDP=1.45D-03 DE=-2.45D-03 OVMax= 2.73D-03

 Cycle   6  Pass 0  IDiag  1:
 RMSU=  2.29D-05    CP:  9.80D-01  8.99D-01  9.42D-01  6.23D-01  8.17D-01
 E= -323.738878646634     Delta-E=       -0.000055372344 Rises=F Damp=F
 DIIS: error= 1.08D-04 at cycle   6 NSaved=   6.
 NSaved= 6 IEnMin= 6 EnMin= -323.738878646634     IErMin= 6 ErrMin= 1.08D-04
 ErrMax= 1.08D-04  0.00D+00 EMaxC= 1.00D-01 BMatC= 6.01D-06 BMatP= 7.22D-05
 IDIUse=3 WtCom= 9.99D-01 WtEn= 1.08D-03
 Coeff-Com: -0.282D-03-0.177D-02 0.165D-01 0.328D-01 0.238D+00 0.715D+00
 Coeff-En:   0.000D+00 0.000D+00 0.000D+00 0.000D+00 0.000D+00 0.100D+01
 Coeff:     -0.282D-03-0.177D-02 0.164D-01 0.328D-01 0.237D+00 0.715D+00
 Gap=     0.356 Goal=   None    Shift=    0.000
 DSYEVD-2 returned Info=       46028 IAlg= 4 N=   228 NDim=   228 NE2=    28255454 trying  DSYEV.
 RMSDP=1.44D-05 MaxDP=5.74D-04 DE=-5.54D-05 OVMax= 5.84D-04

 Cycle   7  Pass 0  IDiag  1:
 RMSU=  9.93D-06    CP:  9.80D-01  8.95D-01  9.47D-01  6.29D-01  8.69D-01
                    CP:  9.95D-01
 E= -323.738883963948     Delta-E=       -0.000005317315 Rises=F Damp=F
 DIIS: error= 2.80D-05 at cycle   7 NSaved=   7.
 NSaved= 7 IEnMin= 7 EnMin= -323.738883963948     IErMin= 7 ErrMin= 2.80D-05
 ErrMax= 2.80D-05  0.00D+00 EMaxC= 1.00D-01 BMatC= 4.45D-07 BMatP= 6.01D-06
 IDIUse=1 WtCom= 1.00D+00 WtEn= 0.00D+00
 Coeff-Com:  0.103D-02-0.241D-02-0.125D-01-0.242D-01-0.111D-01 0.144D+00
 Coeff-Com:  0.906D+00
 Coeff:      0.103D-02-0.241D-02-0.125D-01-0.242D-01-0.111D-01 0.144D+00
 Coeff:      0.906D+00
 Gap=     0.355 Goal=   None    Shift=    0.000
 DSYEVD-2 returned Info=       46028 IAlg= 4 N=   228 NDim=   228 NE2=    28255454 trying  DSYEV.
 RMSDP=7.49D-06 MaxDP=4.84D-04 DE=-5.32D-06 OVMax= 3.92D-04

 Initial convergence to 1.0D-05 achieved.  Increase integral accuracy.
 Cycle   8  Pass 1  IDiag  1:
 E= -323.738902726117     Delta-E=       -0.000018762169 Rises=F Damp=F
 DIIS: error= 1.29D-05 at cycle   1 NSaved=   1.
 NSaved= 1 IEnMin= 1 EnMin= -323.738902726117     IErMin= 1 ErrMin= 1.29D-05
 ErrMax= 1.29D-05  0.00D+00 EMaxC= 1.00D-01 BMatC= 1.76D-07 BMatP= 1.76D-07
 IDIUse=1 WtCom= 1.00D+00 WtEn= 0.00D+00
 Coeff-Com:  0.100D+01
 Coeff:      0.100D+01
 Gap=     0.356 Goal=   None    Shift=    0.000
 DSYEVD-2 returned Info=       46028 IAlg= 4 N=   228 NDim=   228 NE2=    28255454 trying  DSYEV.
 RMSDP=7.49D-06 MaxDP=4.84D-04 DE=-1.88D-05 OVMax= 1.10D-04

 Cycle   9  Pass 1  IDiag  1:
 RMSU=  4.73D-06    CP:  1.00D+00
 E= -323.738902812111     Delta-E=       -0.000000085993 Rises=F Damp=F
 DIIS: error= 1.39D-05 at cycle   2 NSaved=   2.
 NSaved= 2 IEnMin= 2 EnMin= -323.738902812111     IErMin= 1 ErrMin= 1.29D-05
 ErrMax= 1.39D-05  0.00D+00 EMaxC= 1.00D-01 BMatC= 7.62D-08 BMatP= 1.76D-07
 IDIUse=1 WtCom= 1.00D+00 WtEn= 0.00D+00
 Coeff-Com:  0.366D+00 0.634D+00
 Coeff:      0.366D+00 0.634D+00
 Gap=     0.355 Goal=   None    Shift=    0.000
 DSYEVD-2 returned Info=       46028 IAlg= 4 N=   228 NDim=   228 NE2=    28255454 trying  DSYEV.
 RMSDP=1.05D-06 MaxDP=3.82D-05 DE=-8.60D-08 OVMax= 1.11D-04

 Cycle  10  Pass 1  IDiag  1:
 RMSU=  1.04D-06    CP:  1.00D+00  9.69D-01
 E= -323.738902862137     Delta-E=       -0.000000050027 Rises=F Damp=F
 DIIS: error= 6.26D-06 at cycle   3 NSaved=   3.
 NSaved= 3 IEnMin= 3 EnMin= -323.738902862137     IErMin= 3 ErrMin= 6.26D-06
 ErrMax= 6.26D-06  0.00D+00 EMaxC= 1.00D-01 BMatC= 1.88D-08 BMatP= 7.62D-08
 IDIUse=1 WtCom= 1.00D+00 WtEn= 0.00D+00
 Coeff-Com:  0.300D-02 0.319D+00 0.678D+00
 Coeff:      0.300D-02 0.319D+00 0.678D+00
 Gap=     0.355 Goal=   None    Shift=    0.000
 DSYEVD-2 returned Info=       46028 IAlg= 4 N=   228 NDim=   228 NE2=    28255454 trying  DSYEV.
 RMSDP=6.80D-07 MaxDP=4.12D-05 DE=-5.00D-08 OVMax= 3.73D-05

 Cycle  11  Pass 1  IDiag  1:
 RMSU=  5.69D-07    CP:  1.00D+00  1.04D+00  8.57D-01
 E= -323.738902874415     Delta-E=       -0.000000012278 Rises=F Damp=F
 DIIS: error= 2.21D-06 at cycle   4 NSaved=   4.
 NSaved= 4 IEnMin= 4 EnMin= -323.738902874415     IErMin= 4 ErrMin= 2.21D-06
 ErrMax= 2.21D-06  0.00D+00 EMaxC= 1.00D-01 BMatC= 2.09D-09 BMatP= 1.88D-08
 IDIUse=1 WtCom= 1.00D+00 WtEn= 0.00D+00
 Coeff-Com: -0.280D-01 0.122D+00 0.339D+00 0.567D+00
 Coeff:     -0.280D-01 0.122D+00 0.339D+00 0.567D+00
 Gap=     0.355 Goal=   None    Shift=    0.000
 DSYEVD-2 returned Info=       46028 IAlg= 4 N=   228 NDim=   228 NE2=    28255454 trying  DSYEV.
 RMSDP=1.51D-07 MaxDP=8.41D-06 DE=-1.23D-08 OVMax= 2.37D-05

 Cycle  12  Pass 1  IDiag  1:
 RMSU=  1.31D-07    CP:  1.00D+00  1.05D+00  8.62D-01  8.80D-01
 E= -323.738902876200     Delta-E=       -0.000000001786 Rises=F Damp=F
 DIIS: error= 8.77D-07 at cycle   5 NSaved=   5.
 NSaved= 5 IEnMin= 5 EnMin= -323.738902876200     IErMin= 5 ErrMin= 8.77D-07
 ErrMax= 8.77D-07  0.00D+00 EMaxC= 1.00D-01 BMatC= 2.19D-10 BMatP= 2.09D-09
 IDIUse=1 WtCom= 1.00D+00 WtEn= 0.00D+00
 Coeff-Com: -0.715D-02-0.176D-01-0.505D-01 0.170D+00 0.905D+00
 Coeff:     -0.715D-02-0.176D-01-0.505D-01 0.170D+00 0.905D+00
 Gap=     0.355 Goal=   None    Shift=    0.000
 DSYEVD-2 returned Info=       46028 IAlg= 4 N=   228 NDim=   228 NE2=    28255454 trying  DSYEV.
 RMSDP=1.20D-07 MaxDP=6.92D-06 DE=-1.79D-09 OVMax= 6.31D-06

 Cycle  13  Pass 1  IDiag  1:
 RMSU=  4.91D-08    CP:  1.00D+00  1.05D+00  8.75D-01  1.05D+00  1.17D+00
 E= -323.738902876428     Delta-E=       -0.000000000228 Rises=F Damp=F
 DIIS: error= 2.73D-07 at cycle   6 NSaved=   6.
 NSaved= 6 IEnMin= 6 EnMin= -323.738902876428     IErMin= 6 ErrMin= 2.73D-07
 ErrMax= 2.73D-07  0.00D+00 EMaxC= 1.00D-01 BMatC= 4.07D-11 BMatP= 2.19D-10
 IDIUse=1 WtCom= 1.00D+00 WtEn= 0.00D+00
 Coeff-Com:  0.253D-02-0.314D-01-0.971D-01-0.161D-01 0.447D+00 0.695D+00
 Coeff:      0.253D-02-0.314D-01-0.971D-01-0.161D-01 0.447D+00 0.695D+00
 Gap=     0.355 Goal=   None    Shift=    0.000
 DSYEVD-2 returned Info=       46028 IAlg= 4 N=   228 NDim=   228 NE2=    28255454 trying  DSYEV.
 RMSDP=4.28D-08 MaxDP=2.46D-06 DE=-2.28D-10 OVMax= 3.36D-06

 Cycle  14  Pass 1  IDiag  1:
 RMSU=  1.92D-08    CP:  1.00D+00  1.06D+00  8.76D-01  1.11D+00  1.28D+00
                    CP:  9.30D-01
 E= -323.738902876472     Delta-E=       -0.000000000044 Rises=F Damp=F
 DIIS: error= 5.32D-08 at cycle   7 NSaved=   7.
 NSaved= 7 IEnMin= 7 EnMin= -323.738902876472     IErMin= 7 ErrMin= 5.32D-08
 ErrMax= 5.32D-08  0.00D+00 EMaxC= 1.00D-01 BMatC= 8.84D-13 BMatP= 4.07D-11
 IDIUse=1 WtCom= 1.00D+00 WtEn= 0.00D+00
 Coeff-Com:  0.928D-03-0.790D-02-0.246D-01-0.908D-02 0.762D-01 0.187D+00
 Coeff-Com:  0.778D+00
 Coeff:      0.928D-03-0.790D-02-0.246D-01-0.908D-02 0.762D-01 0.187D+00
 Coeff:      0.778D+00
 Gap=     0.355 Goal=   None    Shift=    0.000
 DSYEVD-2 returned Info=       39616 IAlg= 4 N=   228 NDim=   228 NE2=    28255454 trying  DSYEV.
 RMSDP=7.39D-09 MaxDP=4.59D-07 DE=-4.37D-11 OVMax= 3.74D-07

 SCF Done:  E(RM062X) =  -323.738902876     A.U. after   14 cycles
            NFock= 14  Conv=0.74D-08     -V/T= 2.0050
 KE= 3.221213730353D+02 PE=-1.257592237216D+03 EE= 3.619415541725D+02
 Leave Link  502 at Tue Feb 13 18:27:14 2024, MaxMem=  6442450944 cpu:             220.3 elap:              14.0
 (Enter /usr/local/g16_bin/l601.exe)
 Copying SCF densities to generalized density rwf, IOpCl= 0 IROHF=0.

 **********************************************************************

            Population analysis using the SCF Density.

 **********************************************************************

 Orbital symmetries:
       Occupied  (A) (A) (A) (A) (A) (A) (A) (A) (A) (A) (A) (A)
                 (A) (A) (A) (A) (A) (A) (A) (A) (A) (A) (A) (A)
       Virtual   (A) (A) (A) (A) (A) (A) (A) (A) (A) (A) (A) (A)
                 (A) (A) (A) (A) (A) (A) (A) (A) (A) (A) (A) (A)
                 (A) (A) (A) (A) (A) (A) (A) (A) (A) (A) (A) (A)
                 (A) (A) (A) (A) (A) (A) (A) (A) (A) (A) (A) (A)
                 (A) (A) (A) (A) (A) (A) (A) (A) (A) (A) (A) (A)
                 (A) (A) (A) (A) (A) (A) (A) (A) (A) (A) (A) (A)
                 (A) (A) (A) (A) (A) (A) (A) (A) (A) (A) (A) (A)
                 (A) (A) (A) (A) (A) (A) (A) (A) (A) (A) (A) (A)
                 (A) (A) (A) (A) (A) (A) (A) (A) (A) (A) (A) (A)
                 (A) (A) (A) (A) (A) (A) (A) (A) (A) (A) (A) (A)
                 (A) (A) (A) (A) (A) (A) (A) (A) (A) (A) (A) (A)
                 (A) (A) (A) (A) (A) (A) (A) (A) (A) (A) (A) (A)
                 (A) (A) (A) (A) (A) (A) (A) (A) (A) (A) (A) (A)
                 (A) (A) (A) (A) (A) (A) (A) (A) (A) (A) (A) (A)
                 (A) (A) (A) (A) (A) (A) (A) (A) (A) (A) (A) (A)
                 (A) (A) (A) (A) (A) (A) (A) (A) (A) (A) (A) (A)
                 (A) (A) (A) (A) (A) (A) (A) (A) (A) (A) (A) (A)
 The electronic state is 1-A.
 Alpha  occ. eigenvalues --  -19.68149 -19.62463 -14.73796 -10.68400 -10.58914
 Alpha  occ. eigenvalues --  -10.53948  -1.23323  -1.13870  -1.01193  -0.85251
 Alpha  occ. eigenvalues --   -0.76792  -0.69339  -0.59644  -0.57619  -0.55739
 Alpha  occ. eigenvalues --   -0.53383  -0.50712  -0.48899  -0.47608  -0.45387
 Alpha  occ. eigenvalues --   -0.43342  -0.40144  -0.36251  -0.31833
 Alpha virt. eigenvalues --    0.03710   0.04861   0.07366   0.10290   0.10946
 Alpha virt. eigenvalues --    0.12952   0.14647   0.16311   0.17580   0.19062
 Alpha virt. eigenvalues --    0.20911   0.23573   0.25921   0.27211   0.29203
 Alpha virt. eigenvalues --    0.30433   0.32026   0.33414   0.36437   0.38132
 Alpha virt. eigenvalues --    0.39468   0.40820   0.42245   0.44020   0.44917
 Alpha virt. eigenvalues --    0.46188   0.47292   0.49166   0.50685   0.52896
 Alpha virt. eigenvalues --    0.53410   0.54722   0.55232   0.57103   0.57593
 Alpha virt. eigenvalues --    0.58147   0.61193   0.64261   0.66636   0.68843
 Alpha virt. eigenvalues --    0.70760   0.76787   0.78313   0.81973   0.86377
 Alpha virt. eigenvalues --    0.86710   0.88088   0.92674   0.95980   0.99315
 Alpha virt. eigenvalues --    1.04835   1.05847   1.08238   1.12111   1.14761
 Alpha virt. eigenvalues --    1.18775   1.21046   1.27090   1.29050   1.30471
 Alpha virt. eigenvalues --    1.38441   1.39924   1.41013   1.45455   1.48502
 Alpha virt. eigenvalues --    1.51629   1.52153   1.53541   1.56998   1.58547
 Alpha virt. eigenvalues --    1.59227   1.62835   1.64704   1.67098   1.70634
 Alpha virt. eigenvalues --    1.74564   1.76827   1.78504   1.82709   1.86345
 Alpha virt. eigenvalues --    1.88089   1.95093   1.96659   1.97831   1.99541
 Alpha virt. eigenvalues --    2.01183   2.03037   2.04958   2.06549   2.08823
 Alpha virt. eigenvalues --    2.14539   2.18067   2.20257   2.26058   2.26814
 Alpha virt. eigenvalues --    2.28297   2.31064   2.32040   2.36579   2.37053
 Alpha virt. eigenvalues --    2.39129   2.42153   2.44354   2.48747   2.52543
 Alpha virt. eigenvalues --    2.54071   2.58167   2.59652   2.65547   2.67489
 Alpha virt. eigenvalues --    2.71243   2.72758   2.73700   2.78626   2.80326
 Alpha virt. eigenvalues --    2.85308   2.86390   2.90924   2.92659   2.94945
 Alpha virt. eigenvalues --    2.99273   3.02051   3.05807   3.07629   3.08845
 Alpha virt. eigenvalues --    3.11110   3.12902   3.14626   3.17296   3.23937
 Alpha virt. eigenvalues --    3.25839   3.28428   3.29430   3.31792   3.35029
 Alpha virt. eigenvalues --    3.38229   3.40723   3.42854   3.43840   3.48348
 Alpha virt. eigenvalues --    3.53561   3.59948   3.63645   3.69736   3.76140
 Alpha virt. eigenvalues --    3.82377   3.86164   3.86361   3.88802   3.92520
 Alpha virt. eigenvalues --    3.96642   4.07066   4.07545   4.13259   4.26094
 Alpha virt. eigenvalues --    4.28757   4.32427   4.35377   4.44578   4.49265
 Alpha virt. eigenvalues --    4.54377   4.59430   4.65660   4.71072   4.78714
 Alpha virt. eigenvalues --    4.79810   4.86319   4.91453   5.06872   5.14028
 Alpha virt. eigenvalues --    5.15219   5.18594   5.20053   5.21709   5.28915
 Alpha virt. eigenvalues --    5.34801   5.39303   5.46900   5.51451   5.58479
 Alpha virt. eigenvalues --    5.69727   5.75753   5.86290   5.87392   6.14466
 Alpha virt. eigenvalues --    6.18417   6.31926   6.32224   6.43777   6.45584
 Alpha virt. eigenvalues --    6.61332   6.68424   6.73219   6.81381   6.89752
 Alpha virt. eigenvalues --    7.05656   7.07430   7.27869  22.43819  22.65540
 Alpha virt. eigenvalues --   23.23857  32.11574  43.91125  43.98969
          Condensed to atoms (all electrons):
               1          2          3          4          5          6
     1  O    7.976444  -0.090715  -0.007444  -0.082252  -0.016355   0.345872
     2  O   -0.090715   7.819175   0.001737  -0.078730  -0.000322   0.664540
     3  N   -0.007444   0.001737   6.697957   0.178492  -0.067087   0.005321
     4  C   -0.082252  -0.078730   0.178492   5.237694   0.271267   0.222707
     5  C   -0.016355  -0.000322  -0.067087   0.271267   5.121836  -0.007998
     6  C    0.345872   0.664540   0.005321   0.222707  -0.007998   4.525128
     7  H    0.004731   0.009092  -0.028412   0.450205  -0.055954  -0.060410
     8  H    0.000238   0.000964   0.013153  -0.057910   0.401699  -0.000995
     9  H    0.000158  -0.000414   0.001444  -0.055095   0.418568   0.009709
    10  H    0.005816   0.000414  -0.006201   0.002642   0.386126  -0.020397
    11  H   -0.000342  -0.000528   0.377844  -0.061044   0.004027   0.007986
    12  H    0.005047   0.000131   0.367664  -0.019499  -0.005618  -0.024047
    13  H    0.290902   0.005293  -0.000111   0.009205   0.000748  -0.018882
               7          8          9         10         11         12
     1  O    0.004731   0.000238   0.000158   0.005816  -0.000342   0.005047
     2  O    0.009092   0.000964  -0.000414   0.000414  -0.000528   0.000131
     3  N   -0.028412   0.013153   0.001444  -0.006201   0.377844   0.367664
     4  C    0.450205  -0.057910  -0.055095   0.002642  -0.061044  -0.019499
     5  C   -0.055954   0.401699   0.418568   0.386126   0.004027  -0.005618
     6  C   -0.060410  -0.000995   0.009709  -0.020397   0.007986  -0.024047
     7  H    0.531942  -0.000412  -0.006611   0.007160  -0.009390   0.007541
     8  H   -0.000412   0.537692  -0.018614  -0.021674   0.000292   0.000389
     9  H   -0.006611  -0.018614   0.532523  -0.026743   0.004400  -0.000632
    10  H    0.007160  -0.021674  -0.026743   0.512287  -0.000948   0.004381
    11  H   -0.009390   0.000292   0.004400  -0.000948   0.482913  -0.034309
    12  H    0.007541   0.000389  -0.000632   0.004381  -0.034309   0.456499
    13  H   -0.000629  -0.000073   0.000090  -0.000687   0.000136  -0.000613
              13
     1  O    0.290902
     2  O    0.005293
     3  N   -0.000111
     4  C    0.009205
     5  C    0.000748
     6  C   -0.018882
     7  H   -0.000629
     8  H   -0.000073
     9  H    0.000090
    10  H   -0.000687
    11  H    0.000136
    12  H   -0.000613
    13  H    0.367833
 Mulliken charges:
               1
     1  O   -0.432103
     2  O   -0.330638
     3  N   -0.534359
     4  C   -0.017682
     5  C   -0.450938
     6  C    0.351465
     7  H    0.151149
     8  H    0.145253
     9  H    0.141215
    10  H    0.157823
    11  H    0.228962
    12  H    0.243065
    13  H    0.346788
 Sum of Mulliken charges =   0.00000
 Mulliken charges with hydrogens summed into heavy atoms:
               1
     1  O   -0.085315
     2  O   -0.330638
     3  N   -0.062333
     4  C    0.133467
     5  C   -0.006647
     6  C    0.351465
 Electronic spatial extent (au):  <R**2>=            571.2952
 Charge=              0.0000 electrons
 Dipole moment (field-independent basis, Debye):
    X=             -2.0716    Y=              0.7681    Z=              2.0857  Tot=              3.0384
 Quadrupole moment (field-independent basis, Debye-Ang):
   XX=            -33.4860   YY=            -38.9783   ZZ=            -36.2545
   XY=             -0.4697   XZ=              6.1992   YZ=             -1.5598
 Traceless Quadrupole moment (field-independent basis, Debye-Ang):
   XX=              2.7536   YY=             -2.7387   ZZ=             -0.0149
   XY=             -0.4697   XZ=              6.1992   YZ=             -1.5598
 Octapole moment (field-independent basis, Debye-Ang**2):
  XXX=             -2.2477  YYY=              4.7073  ZZZ=              5.7313  XYY=              2.8703
  XXY=             -7.3047  XXZ=             13.6562  XZZ=              2.6643  YZZ=             -1.9440
  YYZ=              3.9586  XYZ=              1.3354
 Hexadecapole moment (field-independent basis, Debye-Ang**3):
 XXXX=           -360.8076 YYYY=           -192.7019 ZZZZ=           -142.8177 XXXY=              9.7167
 XXXZ=             39.6356 YYYX=              2.2628 YYYZ=             -9.8298 ZZZX=             14.9584
 ZZZY=             -3.7496 XXYY=            -90.7775 XXZZ=            -79.4088 YYZZ=            -55.5427
 XXYZ=             -1.1492 YYXZ=             -1.8792 ZZXY=              0.7082
 N-N= 2.497904071317D+02 E-N=-1.257592247686D+03  KE= 3.221213730353D+02
 No NMR shielding tensors so no spin-rotation constants.
 Leave Link  601 at Tue Feb 13 18:27:14 2024, MaxMem=  6442450944 cpu:               2.1 elap:               0.3
 (Enter /usr/local/g16_bin/l701.exe)
 ... and contract with generalized density number  0.
 Compute integral first derivatives.
   1 Symmetry operations used in ECPInt.
 ECPInt:  NShTT=    4465 NPrTT=   13356 LenC2=    4425 LenP2D=   10978.
 LDataN:  DoStor=T MaxTD1= 7 Len=  274
 Leave Link  701 at Tue Feb 13 18:27:15 2024, MaxMem=  6442450944 cpu:               3.3 elap:               0.4
 (Enter /usr/local/g16_bin/l702.exe)
 L702 exits ... SP integral derivatives will be done elsewhere.
 Leave Link  702 at Tue Feb 13 18:27:15 2024, MaxMem=  6442450944 cpu:               0.4 elap:               0.2
 (Enter /usr/local/g16_bin/l703.exe)
 Integral derivatives from FoFJK, PRISM(SPDF).
 Compute integral first derivatives, UseDBF=F ICtDFT=           0.
 Calling FoFJK, ICntrl=      2127 FMM=F ISym2X=0 I1Cent= 0 IOpClX= 0 NMat=1 NMatS=1 NMatT=0.
 FoFJK:  IHMeth= 1 ICntrl=    2127 DoSepK=F KAlg= 0 I1Cent=           0 FoldK=F
 IRaf=         0 NMat=       1 IRICut=       1 DoRegI=T DoRafI=F ISym2E= 0 IDoP0=0 IntGTp=1.
 FoFCou: FMM=F IPFlag=           0 FMFlag=      100000 FMFlg1=         800
         NFxFlg=           0 DoJE=F BraDBF=F KetDBF=F FulRan=T
         wScrn=  0.000000 ICntrl=      2127 IOpCl=  0 I1Cent=           0 NGrid=           0
         NMat0=    1 NMatS0=      1 NMatT0=    0 NMatD0=    1 NMtDS0=    0 NMtDT0=    0
 Symmetry not used in FoFCou.
 Leave Link  703 at Tue Feb 13 18:27:20 2024, MaxMem=  6442450944 cpu:              76.7 elap:               5.0
 (Enter /usr/local/g16_bin/l716.exe)
 Dipole        =-8.15044752D-01 3.02189546D-01 8.20561446D-01
 ***** Axes restored to original set *****
 -------------------------------------------------------------------
 Center     Atomic                   Forces (Hartrees/Bohr)
 Number     Number              X              Y              Z
 -------------------------------------------------------------------
      1        8           0.007667563   -0.000306084    0.003607733
      2        8          -0.035206560    0.004335921   -0.028506687
      3        7          -0.003530484    0.009914573    0.001214432
      4        6          -0.013050350    0.003351410   -0.007338922
      5        6           0.004216764   -0.017752572   -0.002066182
      6        6           0.037689815   -0.001578471    0.016289667
      7        1           0.003481616    0.001453288   -0.004355574
      8        1          -0.001403318    0.000271648   -0.001023190
      9        1           0.003772936    0.002473339    0.001655101
     10        1          -0.000045020    0.002190771    0.004788430
     11        1           0.005624654    0.000099118    0.000804383
     12        1           0.002361910   -0.001591248    0.004042868
     13        1          -0.011579527   -0.002861693    0.010887941
 -------------------------------------------------------------------
 Cartesian Forces:  Max     0.037689815 RMS     0.011232661
 Leave Link  716 at Tue Feb 13 18:27:20 2024, MaxMem=  6442450944 cpu:               0.3 elap:               0.1
 (Enter /usr/local/g16_bin/l103.exe)

 GradGradGradGradGradGradGradGradGradGradGradGradGradGradGradGradGradGrad
 Berny optimization.
 FormGI is forming the generalized inverse of G from B-inverse, IUseBI=4.
 Internal  Forces:  Max     0.045489928 RMS     0.007842756
 Search for a local minimum.
 Step number   1 out of a maximum of   64
 All quantities printed in internal units (Hartrees-Bohrs-Radians)
 RMS Force = .78428D-02 SwitMx=.10000D-02 MixMth= 1
 Mixed Optimization -- RFO/linear search
 Second derivative matrix not updated -- first step.
 ITU=  0
     Eigenvalues ---    0.00466   0.00583   0.00878   0.00972   0.02233
     Eigenvalues ---    0.04519   0.04902   0.05023   0.05495   0.05592
     Eigenvalues ---    0.06644   0.16000   0.16000   0.16000   0.16000
     Eigenvalues ---    0.16000   0.16000   0.17185   0.17853   0.24999
     Eigenvalues ---    0.25000   0.30113   0.30966   0.34108   0.34167
     Eigenvalues ---    0.34178   0.34238   0.36775   0.44358   0.44397
     Eigenvalues ---    0.51188   0.53136   0.94204
 RFO step:  Lambda=-8.70459609D-03 EMin= 4.66326464D-03
 Linear search not attempted -- first point.
 Iteration  1 RMS(Cart)=  0.06340223 RMS(Int)=  0.00222877
 Iteration  2 RMS(Cart)=  0.00269004 RMS(Int)=  0.00041047
 Iteration  3 RMS(Cart)=  0.00000534 RMS(Int)=  0.00041044
 Iteration  4 RMS(Cart)=  0.00000000 RMS(Int)=  0.00041044
 ITry= 1 IFail=0 DXMaxC= 2.06D-01 DCOld= 1.00D+10 DXMaxT= 3.00D-01 DXLimC= 3.00D+00 Rises=F
 Variable       Old X    -DE/DX   Delta X   Delta X   Delta X     New X
                                 (Linear)    (Quad)   (Total)
    R1        2.56827  -0.01510   0.00000  -0.02796  -0.02796   2.54031
    R2        1.85385  -0.01433   0.00000  -0.02753  -0.02753   1.82633
    R3        2.31054  -0.04549   0.00000  -0.04785  -0.04785   2.26269
    R4        2.76187   0.00427   0.00000   0.01134   0.01134   2.77321
    R5        1.92683  -0.00522   0.00000  -0.01153  -0.01153   1.91529
    R6        1.92729  -0.00429   0.00000  -0.00949  -0.00949   1.91780
    R7        2.87739   0.00455   0.00000   0.01469   0.01469   2.89208
    R8        2.86077  -0.00198   0.00000  -0.00620  -0.00620   2.85456
    R9        2.06930  -0.00475   0.00000  -0.01354  -0.01354   2.05576
   R10        2.07031  -0.00102   0.00000  -0.00291  -0.00291   2.06740
   R11        2.07049  -0.00360   0.00000  -0.01028  -0.01028   2.06021
   R12        2.07149  -0.00423   0.00000  -0.01209  -0.01209   2.05939
    A1        1.95241  -0.01373   0.00000  -0.08136  -0.08136   1.87105
    A2        1.91099  -0.00093   0.00000  -0.00217  -0.00216   1.90883
    A3        1.91779  -0.00227   0.00000  -0.01013  -0.01013   1.90767
    A4        1.84595   0.00231   0.00000   0.02070   0.02071   1.86666
    A5        1.91516   0.01283   0.00000   0.09475   0.09449   2.00965
    A6        1.88661  -0.00520   0.00000  -0.01248  -0.01396   1.87264
    A7        1.89697  -0.00252   0.00000  -0.01210  -0.01275   1.88422
    A8        1.93411  -0.00242   0.00000  -0.00268  -0.00389   1.93021
    A9        1.93801  -0.00302   0.00000  -0.02118  -0.02202   1.91599
   A10        1.89180   0.00008   0.00000  -0.04799  -0.04872   1.84307
   A11        1.93705   0.00384   0.00000   0.02840   0.02861   1.96566
   A12        1.94027  -0.00450   0.00000  -0.03091  -0.03118   1.90909
   A13        1.94803  -0.00381   0.00000  -0.02402  -0.02433   1.92369
   A14        1.87519   0.00069   0.00000   0.00677   0.00703   1.88221
   A15        1.87188   0.00100   0.00000   0.01385   0.01400   1.88588
   A16        1.88828   0.00312   0.00000   0.00814   0.00735   1.89563
   A17        2.15067  -0.00292   0.00000  -0.01120  -0.01129   2.13938
   A18        1.92647   0.00423   0.00000   0.01641   0.01632   1.94280
   A19        2.20599  -0.00131   0.00000  -0.00498  -0.00507   2.20092
    D1       -0.00451  -0.00048   0.00000  -0.01109  -0.01112  -0.01563
    D2       -3.13619  -0.00091   0.00000  -0.03377  -0.03374   3.11325
    D3        1.04921   0.00093   0.00000   0.00654   0.00648   1.05569
    D4       -3.12291   0.00245   0.00000   0.05209   0.05229  -3.07063
    D5       -1.07307  -0.00170   0.00000  -0.01835  -0.01851  -1.09159
    D6       -0.97104  -0.00003   0.00000  -0.01142  -0.01147  -0.98251
    D7        1.14002   0.00148   0.00000   0.03413   0.03434   1.17436
    D8       -3.09333  -0.00266   0.00000  -0.03631  -0.03646  -3.12979
    D9       -3.08882  -0.00102   0.00000  -0.01322  -0.01278  -3.10160
   D10       -1.00276  -0.00058   0.00000  -0.00629  -0.00616  -1.00891
   D11        1.10732  -0.00234   0.00000  -0.03387  -0.03320   1.07412
   D12        1.11222  -0.00125   0.00000  -0.05646  -0.05671   1.05550
   D13       -3.08490  -0.00081   0.00000  -0.04952  -0.05009  -3.13499
   D14       -0.97482  -0.00256   0.00000  -0.07711  -0.07714  -1.05196
   D15       -0.99133   0.00230   0.00000   0.02009   0.01999  -0.97134
   D16        1.09474   0.00274   0.00000   0.02702   0.02661   1.12135
   D17       -3.07837   0.00098   0.00000  -0.00056  -0.00044  -3.07880
   D18       -1.06234  -0.00468   0.00000   0.00908   0.00973  -1.05261
   D19        2.08956  -0.00511   0.00000  -0.01445  -0.01383   2.07573
   D20        1.03690   0.00634   0.00000   0.11584   0.11531   1.15221
   D21       -2.09439   0.00590   0.00000   0.09230   0.09175  -2.00264
   D22       -3.11550   0.00111   0.00000   0.05630   0.05622  -3.05928
   D23        0.03639   0.00068   0.00000   0.03276   0.03266   0.06905
         Item               Value     Threshold  Converged?
 Maximum Force            0.045490     0.000450     NO 
 RMS     Force            0.007843     0.000300     NO 
 Maximum Displacement     0.205759     0.001800     NO 
 RMS     Displacement     0.062726     0.001200     NO 
 Predicted change in Energy=-4.663452D-03
 Lowest energy point so far.  Saving SCF results.
 GradGradGradGradGradGradGradGradGradGradGradGradGradGradGradGradGradGrad

 Leave Link  103 at Tue Feb 13 18:27:21 2024, MaxMem=  6442450944 cpu:               1.4 elap:               0.3
 (Enter /usr/local/g16_bin/l202.exe)
                          Input orientation:                          
 ---------------------------------------------------------------------
 Center     Atomic      Atomic             Coordinates (Angstroms)
 Number     Number       Type             X           Y           Z
 ---------------------------------------------------------------------
      1          8           0        0.873583    0.495199   -1.275628
      2          8           0        1.654811   -0.090717    0.729487
      3          7           0       -1.393956    1.190501    0.173382
      4          6           0       -0.732226   -0.108229    0.343735
      5          6           0       -1.335358   -1.256830   -0.468143
      6          6           0        0.725205    0.081144   -0.005345
      7          1           0       -0.749490   -0.357134    1.402597
      8          1           0       -0.836770   -2.212303   -0.280108
      9          1           0       -2.387363   -1.371733   -0.206116
     10          1           0       -1.263858   -1.042644   -1.534276
     11          1           0       -2.361910    1.115275    0.464325
     12          1           0       -1.399190    1.437772   -0.810873
     13          1           0        1.819812    0.621410   -1.426447
 ---------------------------------------------------------------------
                    Distance matrix (angstroms):
                    1          2          3          4          5
     1  O    0.000000
     2  O    2.230269   0.000000
     3  N    2.779353   3.353468   0.000000
     4  C    2.359043   2.418068   1.467517   0.000000
     5  C    2.932756   3.425675   2.530696   1.530425   0.000000
     6  C    1.344275   1.197364   2.398637   1.510571   2.500055
     7  H    3.245570   2.510920   2.078817   1.087861   2.156935
     8  H    3.353645   3.424673   3.477814   2.197098   1.094018
     9  H    3.906796   4.342295   2.774153   2.153662   1.090218
    10  H    2.645849   3.814370   2.814242   2.163953   1.089783
    11  H    3.725634   4.202234   1.013530   2.041415   2.747761
    12  H    2.503984   3.746452   1.014854   2.041588   2.717061
    13  H    0.966450   2.276489   3.634779   3.190426   3.794896
                    6          7          8          9         10
     6  C    0.000000
     7  H    2.085453   0.000000
     8  H    2.788398   2.506147   0.000000
     9  H    3.440820   2.509980   1.765325   0.000000
    10  H    2.748982   3.059367   1.767327   1.770472   0.000000
    11  H    3.289422   2.376603   3.735373   2.575918   3.139545
    12  H    2.646199   2.922883   3.731096   3.039003   2.587294
    13  H    1.873389   3.944915   4.049871   4.812707   3.505671
                   11         12         13
    11  H    0.000000
    12  H    1.630020   0.000000
    13  H    4.615813   3.377477   0.000000
 Stoichiometry    C3H7NO2
 Framework group  C1[X(C3H7NO2)]
 Deg. of freedom    33
 Full point group                 C1      NOp   1
 RotChk:  IX=0 Diff= 1.63D-01
 Largest Abelian subgroup         C1      NOp   1
 Largest concise Abelian subgroup C1      NOp   1
                         Standard orientation:                         
 ---------------------------------------------------------------------
 Center     Atomic      Atomic             Coordinates (Angstroms)
 Number     Number       Type             X           Y           Z
 ---------------------------------------------------------------------
      1          8           0        1.023201   -0.354250    1.134457
      2          8           0        1.723820    0.332388   -0.868481
      3          7           0       -1.163561   -1.279201   -0.310306
      4          6           0       -0.648523    0.085560   -0.470843
      5          6           0       -1.368514    1.153723    0.355500
      6          6           0        0.822931    0.053129   -0.130854
      7          1           0       -0.699179    0.341097   -1.527051
      8          1           0       -0.978293    2.159651    0.174633
      9          1           0       -2.428324    1.155568    0.099816
     10          1           0       -1.267692    0.938548    1.419060
     11          1           0       -2.135668   -1.307345   -0.595717
     12          1           0       -1.135893   -1.534864    0.671426
     13          1           0        1.978438   -0.377830    1.279346
 ---------------------------------------------------------------------
 Rotational constants (GHZ):           5.0959766           2.7685393           2.6407857
 Leave Link  202 at Tue Feb 13 18:27:21 2024, MaxMem=  6442450944 cpu:               0.3 elap:               0.1
 (Enter /usr/local/g16_bin/l301.exe)
 Standard basis: def2TZVP (5D, 7F)
 Ernie: Thresh=  0.10000D-02 Tol=  0.10000D-05 Strict=F.
 There are   258 symmetry adapted cartesian basis functions of A   symmetry.
 There are   228 symmetry adapted basis functions of A   symmetry.
   228 basis functions,   362 primitive gaussians,   258 cartesian basis functions
    24 alpha electrons       24 beta electrons
       nuclear repulsion energy       250.7222273038 Hartrees.
 IExCor= 4336 DFT=T Ex+Corr=M062X ExCW=0 ScaHFX=  0.540000
 ScaDFX=  1.000000  1.000000  1.000000  1.000000 ScalE2=  1.000000  1.000000
 IRadAn=      5 IRanWt=     -1 IRanGd=            0 ICorTp=0 IEmpDi=  4
 NAtoms=   13 NActive=   13 NUniq=   13 SFac= 1.00D+00 NAtFMM=   60 NAOKFM=F Big=F
 Integral buffers will be    131072 words long.
 Raffenetti 2 integral format.
 Two-electron integral symmetry is turned on.
 Leave Link  301 at Tue Feb 13 18:27:21 2024, MaxMem=  6442450944 cpu:               1.1 elap:               0.2
 (Enter /usr/local/g16_bin/l302.exe)
 NPDir=0 NMtPBC=     1 NCelOv=     1 NCel=       1 NClECP=     1 NCelD=      1
         NCelK=      1 NCelE2=     1 NClLst=     1 CellRange=     0.0.
 One-electron integrals computed using PRISM.
 One-electron integral symmetry used in STVInt
   1 Symmetry operations used in ECPInt.
 ECPInt:  NShTT=    4465 NPrTT=   13356 LenC2=    4425 LenP2D=   10984.
 LDataN:  DoStor=T MaxTD1= 6 Len=  172
 GSVD:  received Info=                   1 from GESDD.
 NBasis=   228 RedAO= T EigKep=  1.90D-04  NBF=   228
 NBsUse=   228 1.00D-06 EigRej= -1.00D+00 NBFU=   228
 Precomputing XC quadrature grid using
 IXCGrd= 4 IRadAn=           5 IRanWt=          -1 IRanGd=           0 AccXCQ= 0.00D+00.
 Generated NRdTot=       0 NPtTot=           0 NUsed=           0 NTot=          32
 NSgBfM=   257   257   257   257   257 MxSgAt=    13 MxSgA2=    13.
 Leave Link  302 at Tue Feb 13 18:27:22 2024, MaxMem=  6442450944 cpu:               3.8 elap:               0.4
 (Enter /usr/local/g16_bin/l303.exe)
 DipDrv:  MaxL=1.
 Leave Link  303 at Tue Feb 13 18:27:22 2024, MaxMem=  6442450944 cpu:               0.7 elap:               0.2
 (Enter /usr/local/g16_bin/l401.exe)
 Initial guess from the checkpoint file:  "/scratch/16209.qtcovimaster/Gau-160754.chk"
 B after Tr=     0.000000    0.000000   -0.000000
         Rot=    0.998101   -0.060398   -0.009812   -0.007126 Ang=  -7.06 deg.
 Guess basis will be translated and rotated to current coordinates.
 JPrj=2 DoOrth=T DoCkMO=T.
 Generating alternative initial guess.
 ExpMin= 9.52D-02 ExpMax= 2.70D+04 ExpMxC= 9.22D+02 IAcc=3 IRadAn=         5 AccDes= 0.00D+00
 Harris functional with IExCor= 1009 and IRadAn=       5 diagonalized for initial guess.
 HarFok:  IExCor= 1009 AccDes= 0.00D+00 IRadAn=         5 IDoV= 1 UseB2=F ITyADJ=14
 ICtDFT=  3500011 ScaDFX=  1.000000  1.000000  1.000000  1.000000
 FoFCou: FMM=F IPFlag=           0 FMFlag=      100000 FMFlg1=           0
         NFxFlg=           0 DoJE=T BraDBF=F KetDBF=T FulRan=T
         wScrn=  0.000000 ICntrl=       500 IOpCl=  0 I1Cent=   200000004 NGrid=           0
         NMat0=    1 NMatS0=      1 NMatT0=    0 NMatD0=    1 NMtDS0=    0 NMtDT0=    0
 Petite list used in FoFCou.
 Harris En= -323.618816412725    
 Leave Link  401 at Tue Feb 13 18:27:23 2024, MaxMem=  6442450944 cpu:              10.9 elap:               0.8
 (Enter /usr/local/g16_bin/l502.exe)
 Integral symmetry usage will be decided dynamically.
 Closed shell SCF:
 Using DIIS extrapolation, IDIIS=  1040.
 NGot=  6442450944 LenX=  6442310950 LenY=  6442243945
 Requested convergence on RMS density matrix=1.00D-08 within 128 cycles.
 Requested convergence on MAX density matrix=1.00D-06.
 Requested convergence on             energy=1.00D-06.
 No special actions if energy rises.
 Fock matrices will be formed incrementally for  20 cycles.
 Integral accuracy reduced to 1.0D-05 until final iterations.

 Cycle   1  Pass 0  IDiag  1:
 FoFJK:  IHMeth= 1 ICntrl=       0 DoSepK=F KAlg= 0 I1Cent=           0 FoldK=F
 IRaf= 980000000 NMat=       1 IRICut=       1 DoRegI=T DoRafI=F ISym2E= 0 IDoP0=0 IntGTp=1.
 FoFCou: FMM=F IPFlag=           0 FMFlag=      100000 FMFlg1=           0
         NFxFlg=           0 DoJE=F BraDBF=F KetDBF=F FulRan=T
         wScrn=  0.000000 ICntrl=         0 IOpCl=  0 I1Cent=           0 NGrid=           0
         NMat0=    1 NMatS0=      1 NMatT0=    0 NMatD0=    1 NMtDS0=    0 NMtDT0=    0
 Symmetry not used in FoFCou.
 E= -323.738069234986    
 DIIS: error= 2.89D-03 at cycle   1 NSaved=   1.
 NSaved= 1 IEnMin= 1 EnMin= -323.738069234986     IErMin= 1 ErrMin= 2.89D-03
 ErrMax= 2.89D-03  0.00D+00 EMaxC= 1.00D-01 BMatC= 4.19D-03 BMatP= 4.19D-03
 IDIUse=3 WtCom= 9.71D-01 WtEn= 2.89D-02
 Coeff-Com:  0.100D+01
 Coeff-En:   0.100D+01
 Coeff:      0.100D+01
 Gap=     0.767 Goal=   None    Shift=    0.000
 DSYEVD-2 returned Info=       39616 IAlg= 4 N=   228 NDim=   228 NE2=    28255454 trying  DSYEV.
 GapD=    0.767 DampG=2.000 DampE=1.000 DampFc=2.0000 IDamp=-1.
 RMSDP=4.48D-04 MaxDP=1.62D-02              OVMax= 1.58D-02

 Cycle   2  Pass 0  IDiag  1:
 RMSU=  4.46D-04    CP:  9.97D-01
 E= -323.742708041174     Delta-E=       -0.004638806188 Rises=F Damp=F
 DIIS: error= 6.29D-04 at cycle   2 NSaved=   2.
 NSaved= 2 IEnMin= 2 EnMin= -323.742708041174     IErMin= 2 ErrMin= 6.29D-04
 ErrMax= 6.29D-04  0.00D+00 EMaxC= 1.00D-01 BMatC= 2.01D-04 BMatP= 4.19D-03
 IDIUse=3 WtCom= 9.94D-01 WtEn= 6.29D-03
 Coeff-Com: -0.253D-01 0.103D+01
 Coeff-En:   0.000D+00 0.100D+01
 Coeff:     -0.251D-01 0.103D+01
 Gap=     0.372 Goal=   None    Shift=    0.000
 DSYEVD-2 returned Info=       46028 IAlg= 4 N=   228 NDim=   228 NE2=    28255454 trying  DSYEV.
 RMSDP=1.06D-04 MaxDP=2.90D-03 DE=-4.64D-03 OVMax= 4.63D-03

 Cycle   3  Pass 0  IDiag  1:
 RMSU=  9.53D-05    CP:  9.97D-01  1.11D+00
 E= -323.742919394846     Delta-E=       -0.000211353672 Rises=F Damp=F
 DIIS: error= 5.00D-04 at cycle   3 NSaved=   3.
 NSaved= 3 IEnMin= 3 EnMin= -323.742919394846     IErMin= 3 ErrMin= 5.00D-04
 ErrMax= 5.00D-04  0.00D+00 EMaxC= 1.00D-01 BMatC= 8.96D-05 BMatP= 2.01D-04
 IDIUse=3 WtCom= 9.95D-01 WtEn= 5.00D-03
 Coeff-Com: -0.576D-01 0.408D+00 0.649D+00
 Coeff-En:   0.000D+00 0.000D+00 0.100D+01
 Coeff:     -0.573D-01 0.406D+00 0.651D+00
 Gap=     0.370 Goal=   None    Shift=    0.000
 DSYEVD-2 returned Info=       46028 IAlg= 4 N=   228 NDim=   228 NE2=    28255454 trying  DSYEV.
 RMSDP=4.21D-05 MaxDP=1.84D-03 DE=-2.11D-04 OVMax= 1.95D-03

 Cycle   4  Pass 0  IDiag  1:
 RMSU=  3.06D-05    CP:  9.97D-01  1.15D+00  7.72D-01
 E= -323.742986947338     Delta-E=       -0.000067552492 Rises=F Damp=F
 DIIS: error= 9.78D-05 at cycle   4 NSaved=   4.
 NSaved= 4 IEnMin= 4 EnMin= -323.742986947338     IErMin= 4 ErrMin= 9.78D-05
 ErrMax= 9.78D-05  0.00D+00 EMaxC= 1.00D-01 BMatC= 4.78D-06 BMatP= 8.96D-05
 IDIUse=1 WtCom= 1.00D+00 WtEn= 0.00D+00
 Coeff-Com: -0.149D-01 0.477D-01 0.196D+00 0.771D+00
 Coeff:     -0.149D-01 0.477D-01 0.196D+00 0.771D+00
 Gap=     0.370 Goal=   None    Shift=    0.000
 DSYEVD-2 returned Info=       46028 IAlg= 4 N=   228 NDim=   228 NE2=    28255454 trying  DSYEV.
 RMSDP=1.23D-05 MaxDP=3.65D-04 DE=-6.76D-05 OVMax= 7.02D-04

 Cycle   5  Pass 0  IDiag  1:
 RMSU=  8.48D-06    CP:  9.97D-01  1.16D+00  8.52D-01  1.11D+00
 E= -323.742990361326     Delta-E=       -0.000003413988 Rises=F Damp=F
 DIIS: error= 8.14D-05 at cycle   5 NSaved=   5.
 NSaved= 5 IEnMin= 5 EnMin= -323.742990361326     IErMin= 5 ErrMin= 8.14D-05
 ErrMax= 8.14D-05  0.00D+00 EMaxC= 1.00D-01 BMatC= 1.72D-06 BMatP= 4.78D-06
 IDIUse=1 WtCom= 1.00D+00 WtEn= 0.00D+00
 Coeff-Com:  0.758D-03-0.359D-01 0.468D-02 0.418D+00 0.612D+00
 Coeff:      0.758D-03-0.359D-01 0.468D-02 0.418D+00 0.612D+00
 Gap=     0.370 Goal=   None    Shift=    0.000
 DSYEVD-2 returned Info=       46028 IAlg= 4 N=   228 NDim=   228 NE2=    28255454 trying  DSYEV.
 RMSDP=4.67D-06 MaxDP=1.72D-04 DE=-3.41D-06 OVMax= 3.89D-04

 Initial convergence to 1.0D-05 achieved.  Increase integral accuracy.
 Cycle   6  Pass 1  IDiag  1:
 E= -323.743020430631     Delta-E=       -0.000030069304 Rises=F Damp=F
 DIIS: error= 1.62D-05 at cycle   1 NSaved=   1.
 NSaved= 1 IEnMin= 1 EnMin= -323.743020430631     IErMin= 1 ErrMin= 1.62D-05
 ErrMax= 1.62D-05  0.00D+00 EMaxC= 1.00D-01 BMatC= 2.20D-07 BMatP= 2.20D-07
 IDIUse=1 WtCom= 1.00D+00 WtEn= 0.00D+00
 Coeff-Com:  0.100D+01
 Coeff:      0.100D+01
 Gap=     0.370 Goal=   None    Shift=    0.000
 DSYEVD-2 returned Info=       46028 IAlg= 4 N=   228 NDim=   228 NE2=    28255454 trying  DSYEV.
 RMSDP=4.67D-06 MaxDP=1.72D-04 DE=-3.01D-05 OVMax= 2.14D-04

 Cycle   7  Pass 1  IDiag  1:
 RMSU=  5.33D-06    CP:  1.00D+00
 E= -323.743020496551     Delta-E=       -0.000000065920 Rises=F Damp=F
 DIIS: error= 2.28D-05 at cycle   2 NSaved=   2.
 NSaved= 2 IEnMin= 2 EnMin= -323.743020496551     IErMin= 1 ErrMin= 1.62D-05
 ErrMax= 2.28D-05  0.00D+00 EMaxC= 1.00D-01 BMatC= 2.00D-07 BMatP= 2.20D-07
 IDIUse=1 WtCom= 1.00D+00 WtEn= 0.00D+00
 Coeff-Com:  0.485D+00 0.515D+00
 Coeff:      0.485D+00 0.515D+00
 Gap=     0.370 Goal=   None    Shift=    0.000
 DSYEVD-2 returned Info=       46028 IAlg= 4 N=   228 NDim=   228 NE2=    28255454 trying  DSYEV.
 RMSDP=1.70D-06 MaxDP=8.73D-05 DE=-6.59D-08 OVMax= 1.68D-04

 Cycle   8  Pass 1  IDiag  1:
 RMSU=  1.61D-06    CP:  1.00D+00  9.08D-01
 E= -323.743020625837     Delta-E=       -0.000000129286 Rises=F Damp=F
 DIIS: error= 6.53D-06 at cycle   3 NSaved=   3.
 NSaved= 3 IEnMin= 3 EnMin= -323.743020625837     IErMin= 3 ErrMin= 6.53D-06
 ErrMax= 6.53D-06  0.00D+00 EMaxC= 1.00D-01 BMatC= 2.36D-08 BMatP= 2.00D-07
 IDIUse=1 WtCom= 1.00D+00 WtEn= 0.00D+00
 Coeff-Com: -0.202D-01 0.239D+00 0.781D+00
 Coeff:     -0.202D-01 0.239D+00 0.781D+00
 Gap=     0.370 Goal=   None    Shift=    0.000
 DSYEVD-2 returned Info=       46028 IAlg= 4 N=   228 NDim=   228 NE2=    28255454 trying  DSYEV.
 RMSDP=7.15D-07 MaxDP=2.63D-05 DE=-1.29D-07 OVMax= 6.46D-05

 Cycle   9  Pass 1  IDiag  1:
 RMSU=  4.80D-07    CP:  1.00D+00  1.00D+00  8.77D-01
 E= -323.743020646835     Delta-E=       -0.000000020998 Rises=F Damp=F
 DIIS: error= 1.47D-06 at cycle   4 NSaved=   4.
 NSaved= 4 IEnMin= 4 EnMin= -323.743020646835     IErMin= 4 ErrMin= 1.47D-06
 ErrMax= 1.47D-06  0.00D+00 EMaxC= 1.00D-01 BMatC= 1.26D-09 BMatP= 2.36D-08
 IDIUse=1 WtCom= 1.00D+00 WtEn= 0.00D+00
 Coeff-Com: -0.320D-01 0.569D-01 0.262D+00 0.713D+00
 Coeff:     -0.320D-01 0.569D-01 0.262D+00 0.713D+00
 Gap=     0.370 Goal=   None    Shift=    0.000
 DSYEVD-2 returned Info=       46028 IAlg= 4 N=   228 NDim=   228 NE2=    28255454 trying  DSYEV.
 RMSDP=2.06D-07 MaxDP=5.85D-06 DE=-2.10D-08 OVMax= 2.60D-05

 Cycle  10  Pass 1  IDiag  1:
 RMSU=  1.74D-07    CP:  1.00D+00  1.01D+00  9.10D-01  1.15D+00
 E= -323.743020648898     Delta-E=       -0.000000002062 Rises=F Damp=F
 DIIS: error= 8.32D-07 at cycle   5 NSaved=   5.
 NSaved= 5 IEnMin= 5 EnMin= -323.743020648898     IErMin= 5 ErrMin= 8.32D-07
 ErrMax= 8.32D-07  0.00D+00 EMaxC= 1.00D-01 BMatC= 2.82D-10 BMatP= 1.26D-09
 IDIUse=1 WtCom= 1.00D+00 WtEn= 0.00D+00
 Coeff-Com: -0.436D-02-0.432D-01-0.124D+00 0.210D+00 0.961D+00
 Coeff:     -0.436D-02-0.432D-01-0.124D+00 0.210D+00 0.961D+00
 Gap=     0.370 Goal=   None    Shift=    0.000
 DSYEVD-2 returned Info=       46028 IAlg= 4 N=   228 NDim=   228 NE2=    28255454 trying  DSYEV.
 RMSDP=1.56D-07 MaxDP=4.00D-06 DE=-2.06D-09 OVMax= 2.35D-05

 Cycle  11  Pass 1  IDiag  1:
 RMSU=  7.62D-08    CP:  1.00D+00  1.02D+00  9.23D-01  1.38D+00  1.33D+00
 E= -323.743020649644     Delta-E=       -0.000000000747 Rises=F Damp=F
 DIIS: error= 3.02D-07 at cycle   6 NSaved=   6.
 NSaved= 6 IEnMin= 6 EnMin= -323.743020649644     IErMin= 6 ErrMin= 3.02D-07
 ErrMax= 3.02D-07  0.00D+00 EMaxC= 1.00D-01 BMatC= 4.85D-11 BMatP= 2.82D-10
 IDIUse=1 WtCom= 1.00D+00 WtEn= 0.00D+00
 Coeff-Com:  0.400D-02-0.280D-01-0.975D-01-0.457D-01 0.382D+00 0.785D+00
 Coeff:      0.400D-02-0.280D-01-0.975D-01-0.457D-01 0.382D+00 0.785D+00
 Gap=     0.370 Goal=   None    Shift=    0.000
 DSYEVD-2 returned Info=       46028 IAlg= 4 N=   228 NDim=   228 NE2=    28255454 trying  DSYEV.
 RMSDP=5.66D-08 MaxDP=1.55D-06 DE=-7.47D-10 OVMax= 8.60D-06

 Cycle  12  Pass 1  IDiag  1:
 RMSU=  2.85D-08    CP:  1.00D+00  1.02D+00  9.33D-01  1.47D+00  1.46D+00
                    CP:  1.08D+00
 E= -323.743020649736     Delta-E=       -0.000000000091 Rises=F Damp=F
 DIIS: error= 7.80D-08 at cycle   7 NSaved=   7.
 NSaved= 7 IEnMin= 7 EnMin= -323.743020649736     IErMin= 7 ErrMin= 7.80D-08
 ErrMax= 7.80D-08  0.00D+00 EMaxC= 1.00D-01 BMatC= 3.01D-12 BMatP= 4.85D-11
 IDIUse=1 WtCom= 1.00D+00 WtEn= 0.00D+00
 Coeff-Com:  0.154D-02-0.508D-02-0.196D-01-0.300D-01 0.392D-01 0.238D+00
 Coeff-Com:  0.776D+00
 Coeff:      0.154D-02-0.508D-02-0.196D-01-0.300D-01 0.392D-01 0.238D+00
 Coeff:      0.776D+00
 Gap=     0.370 Goal=   None    Shift=    0.000
 DSYEVD-2 returned Info=       46028 IAlg= 4 N=   228 NDim=   228 NE2=    28255454 trying  DSYEV.
 RMSDP=1.10D-08 MaxDP=2.85D-07 DE=-9.13D-11 OVMax= 1.48D-06

 Cycle  13  Pass 1  IDiag  1:
 RMSU=  7.16D-09    CP:  1.00D+00  1.02D+00  9.34D-01  1.47D+00  1.49D+00
                    CP:  1.13D+00  1.13D+00
 E= -323.743020649740     Delta-E=       -0.000000000004 Rises=F Damp=F
 DIIS: error= 2.32D-08 at cycle   8 NSaved=   8.
 NSaved= 8 IEnMin= 8 EnMin= -323.743020649740     IErMin= 8 ErrMin= 2.32D-08
 ErrMax= 2.32D-08  0.00D+00 EMaxC= 1.00D-01 BMatC= 2.51D-13 BMatP= 3.01D-12
 IDIUse=1 WtCom= 1.00D+00 WtEn= 0.00D+00
 Coeff-Com: -0.236D-03 0.256D-02 0.904D-02 0.179D-03-0.411D-01-0.579D-01
 Coeff-Com:  0.149D+00 0.939D+00
 Coeff:     -0.236D-03 0.256D-02 0.904D-02 0.179D-03-0.411D-01-0.579D-01
 Coeff:      0.149D+00 0.939D+00
 Gap=     0.370 Goal=   None    Shift=    0.000
 DSYEVD-2 returned Info=       39616 IAlg= 4 N=   228 NDim=   228 NE2=    28255454 trying  DSYEV.
 RMSDP=5.20D-09 MaxDP=1.06D-07 DE=-4.21D-12 OVMax= 4.24D-07

 SCF Done:  E(RM062X) =  -323.743020650     A.U. after   13 cycles
            NFock= 13  Conv=0.52D-08     -V/T= 2.0044
 KE= 3.223221943649D+02 PE=-1.259590966684D+03 EE= 3.628035243659D+02
 Leave Link  502 at Tue Feb 13 18:27:36 2024, MaxMem=  6442450944 cpu:             209.5 elap:              13.3
 (Enter /usr/local/g16_bin/l701.exe)
 ... and contract with generalized density number  0.
 Compute integral first derivatives.
   1 Symmetry operations used in ECPInt.
 ECPInt:  NShTT=    4465 NPrTT=   13356 LenC2=    4425 LenP2D=   10984.
 LDataN:  DoStor=T MaxTD1= 7 Len=  274
 Leave Link  701 at Tue Feb 13 18:27:37 2024, MaxMem=  6442450944 cpu:               3.4 elap:               0.4
 (Enter /usr/local/g16_bin/l702.exe)
 L702 exits ... SP integral derivatives will be done elsewhere.
 Leave Link  702 at Tue Feb 13 18:27:37 2024, MaxMem=  6442450944 cpu:               0.4 elap:               0.1
 (Enter /usr/local/g16_bin/l703.exe)
 Integral derivatives from FoFJK, PRISM(SPDF).
 Compute integral first derivatives, UseDBF=F ICtDFT=           0.
 Calling FoFJK, ICntrl=      2127 FMM=F ISym2X=0 I1Cent= 0 IOpClX= 0 NMat=1 NMatS=1 NMatT=0.
 FoFJK:  IHMeth= 1 ICntrl=    2127 DoSepK=F KAlg= 0 I1Cent=           0 FoldK=F
 IRaf=         0 NMat=       1 IRICut=       1 DoRegI=T DoRafI=F ISym2E= 0 IDoP0=0 IntGTp=1.
 FoFCou: FMM=F IPFlag=           0 FMFlag=      100000 FMFlg1=         800
         NFxFlg=           0 DoJE=F BraDBF=F KetDBF=F FulRan=T
         wScrn=  0.000000 ICntrl=      2127 IOpCl=  0 I1Cent=           0 NGrid=           0
         NMat0=    1 NMatS0=      1 NMatT0=    0 NMatD0=    1 NMtDS0=    0 NMtDT0=    0
 Symmetry not used in FoFCou.
 Leave Link  703 at Tue Feb 13 18:27:41 2024, MaxMem=  6442450944 cpu:              70.7 elap:               4.6
 (Enter /usr/local/g16_bin/l716.exe)
 Dipole        =-7.98999241D-01 1.62648917D-01 7.67930705D-01
 ***** Axes restored to original set *****
 -------------------------------------------------------------------
 Center     Atomic                   Forces (Hartrees/Bohr)
 Number     Number              X              Y              Z
 -------------------------------------------------------------------
      1        8          -0.000496328    0.000169229   -0.002989050
      2        8          -0.000748132   -0.001954689   -0.001030140
      3        7           0.000500172   -0.004987047   -0.001756081
      4        6          -0.002725621    0.000615394    0.000874153
      5        6          -0.000112156   -0.000913148   -0.000668914
      6        6           0.001964823    0.002204904    0.004125701
      7        1           0.000176522    0.000258925    0.001003698
      8        1           0.000567991    0.002543333    0.001004155
      9        1          -0.000390563    0.000141213    0.000070643
     10        1          -0.000569259    0.000563227   -0.000654418
     11        1           0.000077843    0.000295022    0.000659255
     12        1           0.000414169    0.000547759   -0.000124183
     13        1           0.001340537    0.000515878   -0.000514820
 -------------------------------------------------------------------
 Cartesian Forces:  Max     0.004987047 RMS     0.001535562
 Leave Link  716 at Tue Feb 13 18:27:42 2024, MaxMem=  6442450944 cpu:               0.5 elap:               0.2
 (Enter /usr/local/g16_bin/l103.exe)

 GradGradGradGradGradGradGradGradGradGradGradGradGradGradGradGradGradGrad
 Berny optimization.
 Using GEDIIS/GDIIS optimizer.
 FormGI is forming the generalized inverse of G from B-inverse, IUseBI=4.
 Internal  Forces:  Max     0.003973190 RMS     0.001120660
 Search for a local minimum.
 Step number   2 out of a maximum of   64
 All quantities printed in internal units (Hartrees-Bohrs-Radians)
 RMS Force = .11207D-02 SwitMx=.10000D-02 MixMth= 1
 Mixed Optimization -- RFO/linear search
 Update second derivatives using D2CorX and points    1    2
 DE= -4.12D-03 DEPred=-4.66D-03 R= 8.83D-01
 TightC=F SS=  1.41D+00  RLast= 2.73D-01 DXNew= 5.0454D-01 8.1957D-01
 Trust test= 8.83D-01 RLast= 2.73D-01 DXMaxT set to 5.05D-01
 ITU=  1  0
 Use linear search instead of GDIIS.
 DSYEVD-2 returned Info=          67 IAlg= 4 N=    33 NDim=    33 NE2=   195179051 trying  DSYEV.
     Eigenvalues ---    0.00467   0.00580   0.00878   0.00982   0.02232
     Eigenvalues ---    0.04372   0.04498   0.05122   0.05484   0.05807
     Eigenvalues ---    0.07077   0.15563   0.16000   0.16000   0.16000
     Eigenvalues ---    0.16000   0.16571   0.18478   0.18575   0.24922
     Eigenvalues ---    0.25009   0.30219   0.31109   0.34055   0.34137
     Eigenvalues ---    0.34195   0.34409   0.37310   0.44369   0.44388
     Eigenvalues ---    0.51346   0.54536   0.90869
 RFO step:  Lambda=-6.72671535D-04 EMin= 4.66738927D-03
 Quartic linear search produced a step of -0.05121.
 Iteration  1 RMS(Cart)=  0.03185588 RMS(Int)=  0.00142811
 Iteration  2 RMS(Cart)=  0.00140619 RMS(Int)=  0.00039219
 Iteration  3 RMS(Cart)=  0.00000158 RMS(Int)=  0.00039219
 Iteration  4 RMS(Cart)=  0.00000000 RMS(Int)=  0.00039219
 ITry= 1 IFail=0 DXMaxC= 1.68D-01 DCOld= 1.00D+10 DXMaxT= 5.05D-01 DXLimC= 3.00D+00 Rises=F
 Variable       Old X    -DE/DX   Delta X   Delta X   Delta X     New X
                                 (Linear)    (Quad)   (Total)
    R1        2.54031   0.00362   0.00143   0.00344   0.00487   2.54519
    R2        1.82633   0.00146   0.00141  -0.00025   0.00116   1.82748
    R3        2.26269  -0.00093   0.00245  -0.00605  -0.00360   2.25909
    R4        2.77321  -0.00397  -0.00058  -0.00899  -0.00957   2.76363
    R5        1.91529   0.00009   0.00059  -0.00104  -0.00045   1.91485
    R6        1.91780   0.00025   0.00049  -0.00048   0.00000   1.91780
    R7        2.89208  -0.00142  -0.00075  -0.00288  -0.00363   2.88845
    R8        2.85456   0.00220   0.00032   0.00605   0.00636   2.86093
    R9        2.05576   0.00091   0.00069   0.00107   0.00176   2.05752
   R10        2.06740  -0.00179   0.00015  -0.00526  -0.00511   2.06228
   R11        2.06021   0.00038   0.00053  -0.00006   0.00047   2.06068
   R12        2.05939   0.00071   0.00062   0.00067   0.00129   2.06068
    A1        1.87105   0.00069   0.00417  -0.00477  -0.00060   1.87044
    A2        1.90883   0.00032   0.00011   0.00448   0.00456   1.91339
    A3        1.90767   0.00055   0.00052   0.00494   0.00543   1.91310
    A4        1.86666   0.00017  -0.00106   0.00921   0.00809   1.87474
    A5        2.00965  -0.00142  -0.00484   0.00126  -0.00357   2.00608
    A6        1.87264   0.00076   0.00072   0.00034   0.00112   1.87377
    A7        1.88422   0.00048   0.00065   0.00414   0.00483   1.88905
    A8        1.93021   0.00013   0.00020  -0.00187  -0.00161   1.92860
    A9        1.91599   0.00054   0.00113   0.00210   0.00327   1.91926
   A10        1.84307  -0.00040   0.00250  -0.00661  -0.00408   1.83900
   A11        1.96566  -0.00307  -0.00147  -0.01574  -0.01723   1.94843
   A12        1.90909   0.00032   0.00160  -0.00149   0.00010   1.90919
   A13        1.92369   0.00044   0.00125   0.00065   0.00191   1.92561
   A14        1.88221   0.00124  -0.00036   0.00671   0.00631   1.88852
   A15        1.88588   0.00137  -0.00072   0.00947   0.00874   1.89462
   A16        1.89563  -0.00020  -0.00038   0.00109   0.00075   1.89638
   A17        2.13938   0.00005   0.00058  -0.00061  -0.00170   2.13769
   A18        1.94280   0.00043  -0.00084   0.00377   0.00127   1.94407
   A19        2.20092  -0.00046   0.00026  -0.00192  -0.00332   2.19761
    D1       -0.01563  -0.00077   0.00057  -0.06111  -0.06055  -0.07618
    D2        3.11325   0.00037   0.00173   0.03910   0.04084  -3.12909
    D3        1.05569   0.00048  -0.00033   0.01476   0.01444   1.07013
    D4       -3.07063   0.00026  -0.00268   0.01345   0.01078  -3.05985
    D5       -1.09159   0.00040   0.00095   0.00796   0.00894  -1.08265
    D6       -0.98251  -0.00021   0.00059  -0.00169  -0.00112  -0.98363
    D7        1.17436  -0.00044  -0.00176  -0.00300  -0.00478   1.16957
    D8       -3.12979  -0.00030   0.00187  -0.00849  -0.00663  -3.13641
    D9       -3.10160  -0.00008   0.00065  -0.03162  -0.03100  -3.13260
   D10       -1.00891  -0.00028   0.00032  -0.03434  -0.03402  -1.04293
   D11        1.07412  -0.00006   0.00170  -0.03353  -0.03186   1.04226
   D12        1.05550  -0.00014   0.00290  -0.03153  -0.02862   1.02688
   D13       -3.13499  -0.00035   0.00257  -0.03425  -0.03165   3.11654
   D14       -1.05196  -0.00012   0.00395  -0.03344  -0.02949  -1.08145
   D15       -0.97134  -0.00005  -0.00102  -0.02364  -0.02466  -0.99600
   D16        1.12135  -0.00025  -0.00136  -0.02635  -0.02768   1.09367
   D17       -3.07880  -0.00003   0.00002  -0.02554  -0.02552  -3.10433
   D18       -1.05261   0.00049  -0.00050   0.02316   0.02268  -1.02993
   D19        2.07573   0.00167   0.00071   0.12769   0.12831   2.20404
   D20        1.15221  -0.00068  -0.00591   0.02374   0.01791   1.17012
   D21       -2.00264   0.00050  -0.00470   0.12827   0.12355  -1.87909
   D22       -3.05928  -0.00021  -0.00288   0.02142   0.01859  -3.04069
   D23        0.06905   0.00098  -0.00167   0.12594   0.12423   0.19328
         Item               Value     Threshold  Converged?
 Maximum Force            0.003973     0.000450     NO 
 RMS     Force            0.001121     0.000300     NO 
 Maximum Displacement     0.167593     0.001800     NO 
 RMS     Displacement     0.031727     0.001200     NO 
 Predicted change in Energy=-3.696777D-04
 Lowest energy point so far.  Saving SCF results.
 GradGradGradGradGradGradGradGradGradGradGradGradGradGradGradGradGradGrad

 Leave Link  103 at Tue Feb 13 18:27:42 2024, MaxMem=  6442450944 cpu:               1.3 elap:               0.2
 (Enter /usr/local/g16_bin/l202.exe)
                          Input orientation:                          
 ---------------------------------------------------------------------
 Center     Atomic      Atomic             Coordinates (Angstroms)
 Number     Number       Type             X           Y           Z
[...]
 ! R9    R(4,7)                  1.0899         -DE/DX =    0.0                 !
 ! R10   R(5,8)                  1.0907         -DE/DX =    0.0                 !
 ! R11   R(5,9)                  1.0905         -DE/DX =    0.0                 !
 ! R12   R(5,10)                 1.0914         -DE/DX =    0.0                 !
 ! A1    A(6,1,13)             107.273          -DE/DX =    0.0                 !
 ! A2    A(4,3,11)             109.9795         -DE/DX =    0.0                 !
 ! A3    A(4,3,12)             110.2564         -DE/DX =    0.0                 !
 ! A4    A(11,3,12)            107.81           -DE/DX =    0.0                 !
 ! A5    A(3,4,5)              115.1053         -DE/DX =    0.0                 !
 ! A6    A(3,4,6)              110.0073         -DE/DX =    0.0                 !
 ! A7    A(3,4,7)              108.5601         -DE/DX =    0.0                 !
 ! A8    A(5,4,6)              107.9851         -DE/DX =    0.0                 !
 ! A9    A(5,4,7)              109.2839         -DE/DX =    0.0                 !
 ! A10   A(6,4,7)              105.4658         -DE/DX =    0.0                 !
 ! A11   A(4,5,8)              111.2644         -DE/DX =    0.0                 !
 ! A12   A(4,5,9)              109.4906         -DE/DX =    0.0                 !
 ! A13   A(4,5,10)             110.1728         -DE/DX =    0.0                 !
 ! A14   A(8,5,9)              108.501          -DE/DX =    0.0                 !
 ! A15   A(8,5,10)             108.8827         -DE/DX =    0.0                 !
 ! A16   A(9,5,10)             108.4672         -DE/DX =    0.0                 !
 ! A17   A(1,6,2)              122.6477         -DE/DX =    0.0                 !
 ! A18   A(1,6,4)              112.057          -DE/DX =    0.0                 !
 ! A19   A(2,6,4)              125.2041         -DE/DX =    0.0                 !
 ! D1    D(13,1,6,2)            -1.1805         -DE/DX =    0.0                 !
 ! D2    D(13,1,6,4)          -177.8739         -DE/DX =    0.0                 !
 ! D3    D(11,3,4,5)            56.8268         -DE/DX =    0.0                 !
 ! D4    D(11,3,4,6)           179.0681         -DE/DX =    0.0                 !
 ! D5    D(11,3,4,7)           -65.9953         -DE/DX =    0.0                 !
 ! D6    D(12,3,4,5)           -61.929          -DE/DX =    0.0                 !
 ! D7    D(12,3,4,6)            60.3124         -DE/DX =    0.0                 !
 ! D8    D(12,3,4,7)           175.249          -DE/DX =    0.0                 !
 ! D9    D(3,4,5,8)           -179.57           -DE/DX =    0.0                 !
 ! D10   D(3,4,5,9)            -59.64           -DE/DX =    0.0                 !
 ! D11   D(3,4,5,10)            59.5696         -DE/DX =    0.0                 !
 ! D12   D(6,4,5,8)             57.1076         -DE/DX =    0.0                 !
 ! D13   D(6,4,5,9)            177.0376         -DE/DX =    0.0                 !
 ! D14   D(6,4,5,10)           -63.7528         -DE/DX =    0.0                 !
 ! D15   D(7,4,5,8)            -57.1355         -DE/DX =    0.0                 !
 ! D16   D(7,4,5,9)             62.7945         -DE/DX =    0.0                 !
 ! D17   D(7,4,5,10)          -177.9958         -DE/DX =    0.0                 !
 ! D18   D(3,4,6,1)            -41.3287         -DE/DX =    0.0                 !
 ! D19   D(3,4,6,2)            142.0788         -DE/DX =    0.0                 !
 ! D20   D(5,4,6,1)             85.0368         -DE/DX =    0.0                 !
 ! D21   D(5,4,6,2)            -91.5557         -DE/DX =    0.0                 !
 ! D22   D(7,4,6,1)           -158.2145         -DE/DX =    0.0                 !
 ! D23   D(7,4,6,2)             25.193          -DE/DX =    0.0                 !
 --------------------------------------------------------------------------------
 GradGradGradGradGradGradGradGradGradGradGradGradGradGradGradGradGradGrad

 Leave Link  103 at Tue Feb 13 18:32:25 2024, MaxMem=  6442450944 cpu:               1.1 elap:               0.2
 (Enter /usr/local/g16_bin/l9999.exe)

 ----------------------------------------------------------------------

 Electric dipole moment (input orientation):
 (Debye = 10**-18 statcoulomb cm , SI units = C m)
                  (au)            (Debye)         (10**-30 SI)
   Tot        0.101277D+01      0.257421D+01      0.858665D+01
   x         -0.734521D+00     -0.186697D+01     -0.622753D+01
   y         -0.960839D-01     -0.244221D+00     -0.814633D+00
   z         -0.690620D+00     -0.175538D+01     -0.585532D+01

 Dipole polarizability, Alpha (input orientation).
 (esu units = cm**3 , SI units = C**2 m**2 J**-1)
 Alpha(0;0):
               (au)            (10**-24 esu)      (10**-40 SI)
   iso        0.500043D+02      0.740987D+01      0.824459D+01
   aniso      0.103152D+02      0.152855D+01      0.170074D+01
   xx         0.553251D+02      0.819834D+01      0.912188D+01
   yx        -0.810369D+00     -0.120084D+00     -0.133612D+00
   yy         0.483225D+02      0.716065D+01      0.796730D+01
   zx         0.288737D+00      0.427864D-01      0.476063D-01
   zy        -0.354065D+01     -0.524671D+00     -0.583775D+00
   zz         0.463652D+02      0.687061D+01      0.764459D+01

 ----------------------------------------------------------------------

 Dipole orientation:
     8          2.70720643         -1.54254704          0.15879577
     8          1.39247186          1.10094261         -2.85626073
     7         -2.09247783         -2.33168283          1.58967244
     6         -1.42646179          0.14327886          0.59232792
     6         -1.06233765          2.21473286          2.58563421
     6          0.97843384         -0.03593361         -0.94427821
     1         -2.88595361          0.72845224         -0.73802055
     1         -0.58178670          4.01803281          1.71057037
     1         -2.80648396          2.45205204          3.65713833
     1          0.44151698          1.68606891          3.89423557
     1         -3.68622599         -2.20547204          2.64191779
     1         -0.69350580         -2.98910815          2.72157039
     1          4.20357372         -1.51240256         -0.89240889

 Electric dipole moment (dipole orientation):
 (Debye = 10**-18 statcoulomb cm , SI units = C m)
                  (au)            (Debye)         (10**-30 SI)
   Tot        0.101277D+01      0.257421D+01      0.858665D+01
   x          0.000000D+00      0.000000D+00      0.000000D+00
   y          0.000000D+00      0.000000D+00      0.000000D+00
   z          0.101277D+01      0.257421D+01      0.858665D+01

 Dipole polarizability, Alpha (dipole orientation).
 (esu units = cm**3 , SI units = C**2 m**2 J**-1)
 Alpha(0;0):
               (au)            (10**-24 esu)      (10**-40 SI)
   iso        0.500043D+02      0.740987D+01      0.824459D+01
   aniso      0.103152D+02      0.152855D+01      0.170074D+01
   xx         0.501481D+02      0.743119D+01      0.826831D+01
   yx        -0.164327D+01     -0.243508D+00     -0.270939D+00
   yy         0.490530D+02      0.726890D+01      0.808774D+01
   zx        -0.475544D+01     -0.704684D+00     -0.784066D+00
   zy        -0.306012D+01     -0.453463D+00     -0.504546D+00
   zz         0.508117D+02      0.752951D+01      0.837771D+01

 ----------------------------------------------------------------------
 Unable to Open any file for archive entry.
 1\1\GINC-QTCOVI02\Freq\RM062X\def2TZVP\C3H7N1O2\ALEJANDRO\13-Feb-2024\
 0\\#P Geom=AllCheck Guess=TCheck SCRF=Check GenChk RM062X/def2TZVP Fre
 q\\5950 alanine\\0,1\O,0.8902273373,0.745333125,-1.1737414488\O,1.6264
 553971,-0.4662248635,0.5515410884\N,-1.4215761806,1.1927613263,0.11237
 56331\C,-0.7430076223,-0.0742706484,0.3409120257\C,-1.3307479432,-1.27
 25257853,-0.4141265578\C,0.7174661124,0.0451384977,-0.036572694\H,-0.7
 505582296,-0.2838890289,1.4104858155\H,-0.7811004699,-2.1881556876,-0.
 1922559443\H,-2.3711590561,-1.4134733394,-0.1194806601\H,-1.297493666,
 -1.0925194724,-1.4900418436\H,-2.4023040384,1.1080061264,0.3506717422\
 H,-1.3614365136,1.4516823817,-0.8659875132\H,1.838524873,0.7498473686,
 -1.367189643\\Version=ES64L-G16RevC.01\State=1-A\HF=-323.7437891\RMSD=
 1.844e-09\RMSF=1.380e-05\ZeroPoint=0.1088638\Thermal=0.1156939\ETot=-3
 23.6280952\HTot=-323.627151\GTot=-323.6656378\Dipole=-0.7345208,-0.096
 0839,-0.6906201\DipoleDeriv=-0.5040032,-0.1628268,0.2243522,-0.048589,
 -0.6175572,0.3977978,0.0937083,0.4591233,-1.0210485,-1.0503021,0.23909
 07,-0.3493059,0.1695448,-0.5250333,0.2685746,-0.110401,0.2326144,-0.69
 94207,-0.3910849,0.0714777,-0.0572695,0.0600331,-0.7784699,-0.1068726,
 -0.0250578,-0.1024116,-0.3353872,0.0967236,-0.1843259,0.0488685,-0.165
 1559,0.536818,0.0849424,0.0579196,0.0098928,0.1690956,-0.0191787,-0.03
 09728,-0.021982,0.0622418,-0.0915031,-0.0573463,0.0292043,-0.0557675,0
 .0425883,1.3832684,-0.0784477,0.1573463,-0.1482745,0.6718154,-0.680446
 2,0.0430922,-0.728093,1.280443,0.0275536,0.0017878,-0.0162736,0.021484
 ,0.0020736,0.0067285,-0.0039074,0.0263957,-0.0655267,0.0322351,0.08318
 55,-0.0260588,0.050785,-0.0800939,-0.0013945,-0.0255694,0.0227172,0.05
 66481,-0.1205295,-0.0408845,0.0340738,-0.0205444,0.048797,-0.0156393,0
 .0448679,-0.0114925,0.0459486,0.0666108,-0.0164036,0.0175161,-0.008377
 7,0.0365216,0.0614365,-0.0114692,0.0029685,-0.0922706,0.0297133,0.0085
 018,0.0240135,-0.0711218,0.2160996,0.0786581,-0.0245416,0.0963107,0.22
 20234,0.2028323,0.0674824,0.0065682,0.0395376,0.2525613,-0.039788,-0.0
 052218,0.0415713,0.0614835,0.2461614,0.0423354,-0.0418489,0.0584369,0.
 3279709,0.003349,-0.0626239,0.0061706,0.3354233\Polar=55.3251215,-0.81
 03689,48.3224629,0.2887371,-3.5406523,46.3651976\Quadrupole=2.2219601,
 -2.0597237,-0.1622364,2.2348992,-3.4674273,-0.9515931\PG=C01 [X(C3H7N1
 O2)]\NImag=0\\0.62339416,-0.00849960,0.15384849,-0.10323519,-0.1758104
 9,0.33391755,0.02546391,0.02481122,-0.03810742,0.55387810,0.02850960,-
 0.01334999,0.06202119,-0.26603520,0.20276132,-0.04373000,0.06243548,-0
 .05788360,0.29785798,-0.20708349,0.28762578,-0.00360666,0.00036478,0.0
 0108924,-0.00992980,-0.00237385,-0.00089106,0.59750149,-0.00007224,0.0
 0157865,-0.00015223,-0.00023234,0.00007575,-0.00148908,-0.07722902,0.3
 3179361,0.00143845,-0.00038009,-0.00006698,0.00355055,0.00023132,0.002
 62312,-0.12124050,-0.17001835,0.55221003,-0.00678864,-0.00143941,0.005
 97247,-0.03021473,0.00893322,-0.00251624,-0.11534979,0.04388857,0.0016
 5180,0.51318568,-0.01823982,0.00127809,0.01562834,0.01979457,0.0180868
 4,0.00650436,0.08566855,-0.18676551,0.05135636,-0.02753049,0.46453026,
 0.03608562,0.01274869,-0.01327114,-0.02445432,0.00918367,0.01074937,0.
 01635375,0.01885746,-0.09592483,-0.01780939,-0.06536079,0.63170487,-0.
 00088892,0.00045143,0.00189476,-0.00304445,0.00420831,0.00249660,0.007
 13079,0.02162971,0.00796861,-0.10036957,-0.04324783,-0.02709644,0.5695
 8458,0.00102824,0.00120042,-0.00144272,0.00392193,-0.00247217,0.000450
 79,-0.00514829,-0.04197542,-0.01497019,-0.02624039,-0.12609027,-0.0372
 9713,-0.03821616,0.50829210,0.00140108,0.00003958,-0.00333622,0.002640
 78,-0.00176309,0.00017368,0.00188821,0.00530708,0.00604767,-0.02014920
 ,-0.03873502,-0.11050277,-0.02079922,-0.05002564,0.54955121,-0.1410281
 3,-0.00956749,0.02887786,-0.53233657,0.22429360,-0.24678502,-0.0191219
 7,0.00723051,0.00077863,-0.18587483,-0.00572085,0.03544679,-0.01613525
 ,-0.01842334,-0.00521597,0.89915380,-0.01963613,-0.12169379,0.08922500
 ,0.21397025,-0.20534423,0.14533822,0.03707854,-0.00347680,-0.01011792,
 -0.02168674,-0.08068316,0.00020872,-0.03045840,-0.00594628,0.00605934,
 -0.17126262,0.42842251,0.04321600,0.08775412,-0.21063296,-0.23167386,0
 .14297999,-0.25006143,-0.00509390,0.00125598,0.00008493,0.04403633,-0.
 00545350,-0.09319986,-0.02067566,-0.00119400,0.00771359,0.13407095,-0.
 23921025,0.57638891,-0.00718422,-0.00103887,0.00204438,0.00133940,-0.0
 0067993,-0.00228520,0.00093990,0.00848760,-0.01832208,-0.05106199,0.00
 021268,0.00538423,0.00094469,0.00062646,-0.01538299,-0.00014577,-0.006
 11961,0.03482302,0.05705509,-0.00096890,0.00057519,0.00017611,0.001316
 71,-0.00043939,-0.00083662,-0.00013580,-0.01391607,0.03232631,0.000468
 58,-0.05364923,0.04398898,0.00015119,0.00324109,-0.02738329,-0.0020476
 8,-0.00190216,0.00497734,-0.00120140,0.07133432,0.00208763,-0.00031118
 ,0.00044774,-0.00108695,-0.00053848,0.00275858,-0.00136176,0.00422612,
 -0.00157753,0.00907993,0.04910357,-0.31004200,0.00041680,0.00003761,-0
 .01569945,-0.00158967,0.00270703,-0.01172703,-0.00515023,-0.05322076,0
 .33319299,-0.00009356,0.00018955,-0.00026535,-0.00004169,0.00024271,-0
 .00007447,0.00054836,-0.00321428,-0.00133549,0.00644778,-0.01018526,0.
 00477514,-0.11842336,0.11605332,-0.02917550,0.00052539,-0.00096678,0.0
 0087021,0.00041188,0.00065263,0.00013495,0.12407952,-0.00047282,0.0003
 6076,-0.00037930,-0.00084685,0.00144368,-0.00039810,-0.00181844,-0.006
 60570,-0.00354728,0.01341373,-0.01693153,0.00822376,0.11422081,-0.2362
 4027,0.04668386,0.00222225,-0.00199542,0.00137651,0.00012153,0.0007311
 4,-0.00029501,-0.12526206,0.25712379,0.00006428,0.00007104,-0.00023518
 ,0.00023091,0.00016232,-0.00029403,-0.00115725,-0.00441072,-0.00024435
 ,0.01048526,-0.01145913,0.00377069,-0.02958425,0.04786728,-0.06051568,
 0.00016347,0.00006436,0.00086499,0.00049277,0.00063100,0.00014714,0.03
 202753,-0.05052193,0.05979286,-0.00014404,-0.00016564,0.00046659,-0.00
 083257,0.00021021,0.00029342,0.00256596,0.00081208,0.00001821,-0.01418
 945,-0.00118364,0.00327642,-0.29345075,-0.03091180,0.07308533,0.001681
 35,-0.00134242,-0.00282796,0.00037065,0.00014651,-0.00030015,-0.013822
 27,-0.00273464,0.00436670,0.31716631,-0.00077311,-0.00001184,0.0009514
 7,-0.00183684,0.00169185,0.00023134,0.00039096,0.00324225,0.00076249,-
 0.02774262,-0.00737583,0.00627201,-0.02983362,-0.04876161,0.01055503,0
 .00205688,-0.00472769,-0.00379211,0.00094961,0.00106277,0.00035548,0.0
 2574087,0.00477494,-0.00861628,0.03573824,0.05276776,-0.00035388,0.000
 07491,0.00144780,-0.00098031,0.00060344,0.00042618,-0.00009007,0.00190
 654,-0.00008139,-0.01933196,-0.00459188,0.00370039,0.07372074,0.010161
 55,-0.06741181,0.00088911,-0.00310293,-0.00328101,0.00006401,0.0009727
 9,0.00076281,-0.00708879,-0.00142327,0.00107653,-0.07816956,-0.0078738
 0,0.07022096,-0.00010065,-0.00019419,0.00075183,-0.00031767,-0.0002561
 1,0.00050613,-0.00028550,0.00073041,0.00101137,-0.00116018,0.00255667,
 -0.01489287,-0.04775586,-0.00128422,0.01082055,0.00098177,0.00118865,-
 0.00261591,-0.00042767,-0.00251989,-0.00123418,0.00040093,0.00152405,-
 0.01662247,0.00038809,-0.00527864,0.03072132,0.04791708,0.00006862,-0.
 00032834,0.00006549,-0.00011500,0.00002213,0.00022699,0.00002633,0.003
 24220,0.00080128,0.00025970,0.00293550,-0.02777868,-0.00046219,-0.0553
 3871,0.04818754,0.00119200,0.00117346,-0.00077548,-0.00237671,-0.00393
 230,-0.00253114,-0.00280803,-0.00331773,0.02642965,0.00032566,-0.00180
 677,0.00320105,0.00374549,0.05803849,-0.00002848,0.00000562,0.00128977
 ,-0.00038614,-0.00024004,0.00060619,0.00062245,0.00045335,0.00278918,-
 0.00116082,0.00335258,-0.01808437,0.01007606,0.04657005,-0.30765800,0.
 00125380,0.00070605,-0.00213252,-0.00159716,-0.00281212,0.00023261,0.0
 0046056,0.00041285,-0.00437499,-0.00033759,0.00123236,-0.00727320,-0.0
 0905871,-0.04847413,0.33469446,0.00009451,-0.00012353,0.00010311,-0.00
 188813,0.00013114,-0.00004519,-0.40916041,-0.01594954,0.10693266,-0.01
 821836,-0.00529664,0.00263452,0.00236728,-0.00130821,0.00034244,0.0016
 0459,0.00275432,-0.00206420,0.00010811,-0.00001862,-0.00024070,0.00006
 303,-0.00046736,-0.00035132,0.00027479,0.00071424,0.00056393,-0.000017
 63,0.00018523,0.00002798,0.42683110,-0.00046317,0.00120551,-0.00032859
 ,0.00224126,0.00076489,-0.00006996,-0.04923680,-0.03838708,0.03843992,
 0.03790500,-0.00253614,-0.01111209,0.00119581,0.00228613,-0.00040446,0
 .00016632,-0.00700505,0.00259767,-0.00052078,0.00081724,0.00040027,-0.
 00045009,0.00028858,0.00038694,-0.00093794,-0.00074602,0.00010134,-0.0
 0013053,-0.00014520,-0.00012310,0.02124565,0.04579255,0.00060611,-0.00
 052405,0.00037314,-0.00149023,-0.00046153,0.00011798,0.07130277,0.0264
 9629,-0.06131236,-0.00687628,-0.00249343,0.00241767,0.00010781,0.00079
 580,-0.00040157,0.00048796,0.00285507,-0.00121470,-0.00025460,-0.00019
 207,-0.00010301,-0.00024694,0.00033819,0.00013265,0.00011449,-0.000334
 89,0.00027181,0.00023292,-0.00014377,-0.00018279,-0.10315788,-0.028312
 64,0.06814850,-0.00166052,-0.00116709,0.00194466,0.00024649,-0.0012903
 6,0.00212476,-0.05200936,0.01411363,0.01792345,0.00108759,0.00281429,-
 0.02079568,-0.00018784,-0.00007812,0.00063023,0.00136108,0.00360551,-0
 .00611788,-0.00210477,0.00430841,-0.00073859,-0.00005010,0.00015839,-0
 .00013781,-0.00007828,-0.00018665,0.00018167,0.00048156,-0.00002065,0.
 00026955,-0.00222435,-0.01109372,0.03920151,0.05520507,-0.00048891,-0.
 00092658,0.00002712,-0.00033751,0.00005513,-0.00021976,0.01177778,-0.0
 4844654,0.07551121,-0.00126702,-0.01407677,0.03601324,-0.00062934,0.00
 156276,0.00169748,0.00094440,0.00102857,0.00049184,0.00275265,-0.00395
 956,-0.00022696,0.00009576,0.00053607,-0.00065501,-0.00008229,-0.00023
 157,-0.00010562,-0.00000800,-0.00059201,-0.00101968,-0.00194132,-0.002
 48693,0.00226510,-0.01067527,0.06725733,0.00203715,-0.00069722,-0.0004
 6083,0.00004299,-0.00012495,0.00021681,0.04007839,0.11736093,-0.404875
 37,-0.00247271,-0.00255386,-0.00782606,0.00093827,-0.00101597,0.002220
 39,-0.00036175,0.00103558,-0.00064094,-0.00086946,0.00107298,0.0018519
 7,-0.00009051,-0.00047271,-0.00020568,0.00001351,0.00014481,-0.0000422
 1,0.00035022,0.00058870,-0.00004735,-0.00466670,-0.00157950,-0.0083785
 7,-0.03499613,-0.11341423,0.41809254,-0.48745724,-0.00362116,0.0984630
 7,-0.00232227,0.00410665,-0.00695172,0.00077698,-0.00019509,-0.0003756
 4,0.00250648,0.00035777,0.00109222,0.00022865,-0.00001943,-0.00008576,
 -0.01066545,-0.00712459,0.01405286,-0.00024529,-0.00015174,-0.00001707
 ,-0.00004592,-0.00005858,0.00002217,0.00007020,0.00006070,-0.00012621,
 -0.00010428,-0.00002045,-0.00014150,0.00016547,0.00007899,-0.00002764,
 -0.00006657,-0.00014095,-0.00000327,0.49715923,0.02000822,-0.02373657,
 0.01001861,0.00334780,-0.00329582,-0.00509016,0.00063526,-0.00035934,-
 0.00039507,0.00103787,0.00127776,0.00605215,0.00099027,0.00024224,-0.0
 0021842,-0.03108398,0.00215005,0.00899188,-0.00121324,0.00003695,0.000
 29345,-0.00008834,-0.00016830,0.00005047,0.00012567,0.00012177,0.00007
 590,-0.00007368,0.00004928,-0.00006380,0.00007464,0.00015152,-0.000288
 09,-0.00048837,0.00028010,-0.00034456,0.00672786,0.02325035,0.06041123
 ,0.01459359,-0.05158909,-0.00614397,-0.00497034,0.00294139,-0.00150027
 ,0.00020664,0.00032789,-0.00090919,0.00470238,-0.00349195,0.00053591,0
 .00006257,-0.00018102,0.05198384,0.00423173,-0.01216198,0.00105332,0.0
 0029933,-0.00024483,0.00000866,0.00000242,0.00008502,0.00000059,0.0001
 1207,0.00018314,0.00002980,0.00020250,0.00014102,-0.00007866,0.0000041
 9,0.00013125,0.00051026,-0.00036474,0.00009531,-0.10590150,-0.01908235
 ,0.06376386\\0.00000063,-0.00001357,0.00002069,-0.00000024,-0.00000434
 ,0.00000503,0.00000861,0.00001919,0.00000198,-0.00000768,-0.00005537,0
 .00000174,-0.00000257,0.00000556,0.00000561,-0.00000316,0.00003879,-0.
 00003681,0.00000249,0.00000467,0.00000483,0.00000338,0.00000675,0.0000
 0281,0.00000127,0.00000309,0.00000053,-0.00000227,-0.00000240,0.000000
 10,-0.00000105,-0.00000397,0.00000181,-0.00000411,-0.00000268,-0.00000
 415,0.00000471,0.00000428,-0.00000418\\\@
 The archive entry for this job was punched.


 ERWIN WITH HIS PSI CAN DO
 CALCULATIONS QUITE A FEW.
 BUT ONE THING HAS NOT BEEN SEEN
 JUST WHAT DOES PSI REALLY MEAN.
 -- WALTER HUCKEL, TRANS. BY FELIX BLOCH
 Job cpu time:       0 days  0 hours 27 minutes 33.2 seconds.
 Elapsed time:       0 days  0 hours  1 minutes 49.8 seconds.
 File lengths (MBytes):  RWF=     68 Int=      0 D2E=      0 Chk=      5 Scr=      1
 Normal termination of Gaussian 16 at Tue Feb 13 18:32:25 2024.
