 Entering Gaussian System, Link 0=/usr/local/g16_bin/g16.exe
 Input=alanine_conf4.com
 Output=alanine_conf4.log
 Initial command:
 /usr/local/g16_bin/l1.exe "/scratch/16209.qtcovimaster/Gau-165822.inp" -scrdir="/scratch/16209.qtcovimaster/"
 Default is to use a total of   8 processors:
                                8 via shared-memory
                                1 via Linda
 Entering Link 1 = /usr/local/g16_bin/l1.exe PID=    165823.
  
 Copyright (c) 1988-2019, Gaussian, Inc.  All Rights Reserved.
  
 This is part of the Gaussian(R) 16 program.  It is based on
 the Gaussian(R) 09 system (copyright 2009, Gaussian, Inc.),
 the Gaussian(R) 03 system (copyright 2003, Gaussian, Inc.),
 the Gaussian(R) 98 system (copyright 1998, Gaussian, Inc.),
 the Gaussian(R) 94 system (copyright 1995, Gaussian, Inc.),
 the Gaussian 92(TM) system (copyright 1992, Gaussian, Inc.),
 the Gaussian 90(TM) system (copyright 1990, Gaussian, Inc.),
 the Gaussian 88(TM) system (copyright 1988, Gaussian, Inc.),
 the Gaussian 86(TM) system (copyright 1986, Carnegie Mellon
 University), and the Gaussian 82(TM) system (copyright 1983,
 Carnegie Mellon University). Gaussian is a federally registered
 trademark of Gaussian, Inc.
  
 This software contains proprietary and confidential information,
 including trade secrets, belonging to Gaussian, Inc.
  
 This software is provided under written license and may be
 used, copied, transmitted, or stored only in accord with that
 written license.
  
 The following legend is applicable only to US Government
 contracts under FAR:
  
                    RESTRICTED RIGHTS LEGEND
  
 Use, reproduction and disclosure by the US Government is
 subject to restrictions as set forth in subparagraphs (a)
 and (c) of the Commercial Computer Software - Restricted
 Rights clause in FAR 52.227-19.
  
 Gaussian, Inc.
 340 Quinnipiac St., Bldg. 40, Wallingford CT 06492
  
  
 ---------------------------------------------------------------
 Warning -- This program may not be used in any manner that
 competes with the business of Gaussian, Inc. or will provide
 assistance to any competitor of Gaussian, Inc.  The licensee
 of this program is prohibited from giving any competitor of
 Gaussian, Inc. access to this program.  By using this program,
 the user acknowledges that Gaussian, Inc. is engaged in the
 business of creating and licensing software in the field of
 computational chemistry and represents and warrants to the
 licensee that it is not a competitor of Gaussian, Inc. and that
 it will not use this program in any manner prohibited above.
 ---------------------------------------------------------------
  

 Cite this work as:
 Gaussian 16, Revision C.01,
 M. J. Frisch, G. W. Trucks, H. B. Schlegel, G. E. Scuseria, 
 M. A. Robb, J. R. Cheeseman, G. Scalmani, V. Barone, 
 G. A. Petersson, H. Nakatsuji, X. Li, M. Caricato, A. V. Marenich, 
 J. Bloino, B. G. Janesko, R. Gomperts, B. Mennucci, H. P. Hratchian, 
 J. V. Ortiz, A. F. Izmaylov, J. L. Sonnenberg, D. Williams-Young, 
 F. Ding, F. Lipparini, F. Egidi, J. Goings, B. Peng, A. Petrone, 
 T. Henderson, D. Ranasinghe, V. G. Zakrzewski, J. Gao, N. Rega, 
 G. Zheng, W. Liang, M. Hada, M. Ehara, K. Toyota, R. Fukuda, 
 J. Hasegawa, M. Ishida, T. Nakajima, Y. Honda, O. Kitao, H. Nakai, 
 T. Vreven, K. Throssell, J. A. Montgomery, Jr., J. E. Peralta, 
 F. Ogliaro, M. J. Bearpark, J. J. Heyd, E. N. Brothers, K. N. Kudin, 
 V. N. Staroverov, T. A. Keith, R. Kobayashi, J. Normand, 
 K. Raghavachari, A. P. Rendell, J. C. Burant, S. S. Iyengar, 
 J. Tomasi, M. Cossi, J. M. Millam, M. Klene, C. Adamo, R. Cammi, 
 J. W. Ochterski, R. L. Martin, K. Morokuma, O. Farkas, 
 J. B. Foresman, and D. J. Fox, Gaussian, Inc., Wallingford CT, 2019.
 
 ******************************************
 Gaussian 16:  ES64L-G16RevC.01  3-Jul-2019
                13-Feb-2024 
 ******************************************
 %mem=48GB
 %nproc=16
 Will use up to   16 processors via shared memory.
 Default route: Maxdisk=400Gb
 --------------------------
 #p m062X def2TZVP opt freq
 --------------------------
 1/18=20,19=15,26=3,38=1/1,3;
 2/9=110,12=2,17=6,18=5,40=1/2;
 3/5=44,7=101,11=2,25=1,30=1,71=1,74=-55/1,2,3;
 4//1;
 5/5=2,38=5/2;
 6/7=2,8=2,9=2,10=2,28=1/1;
 7//1,2,3,16;
 1/18=20,19=15,26=3/3(2);
 2/9=110/2;
 99//99;
 2/9=110/2;
 3/5=44,7=101,11=2,25=1,30=1,71=1,74=-55/1,2,3;
 4/5=5,16=3,69=1/1;
 5/5=2,38=5/2;
 7//1,2,3,16;
 1/18=20,19=15,26=3/3(-5);
 2/9=110/2;
 6/7=2,8=2,9=2,10=2,19=2,28=1/1;
 99/9=1/99;
 Leave Link    1 at Tue Feb 13 18:38:15 2024, MaxMem=  6442450944 cpu:               1.0 elap:               0.1
 (Enter /usr/local/g16_bin/l101.exe)
 ------------
 5950 alanine
 ------------
 Symbolic Z-matrix:
 Charge =  0 Multiplicity = 1
 O                     1.2932    1.07027   0.79787 
 O                     1.37136  -0.51285  -0.8302 
 N                    -1.4105    1.1507    0.1821 
 C                    -0.7085   -0.1136    0.3937 
 C                    -1.3345   -1.2      -0.4702 
 C                     0.747     0.0903    0.0308 
 H                    -0.7666   -0.3737    1.4558 
 H                    -0.858    -2.1695   -0.2878 
 H                    -2.4023   -1.3127   -0.2521 
 H                    -1.2248   -0.9797   -1.5384 
 H                    -2.3916    1.042     0.4376 
 H                    -1.4071    1.3875   -0.8099 
 H                     2.23659   1.22401   0.57702 
 
 ITRead=  0  0  0  0  0  0  0  0  0  0  0  0  0
 MicOpt= -1 -1 -1 -1 -1 -1 -1 -1 -1 -1 -1 -1 -1
 NAtoms=     13 NQM=       13 NQMF=       0 NMMI=      0 NMMIF=      0
                NMic=       0 NMicF=      0.
                    Isotopes and Nuclear Properties:
 (Nuclear quadrupole moments (NQMom) in fm**2, nuclear magnetic moments (NMagM)
  in nuclear magnetons)

  Atom         1           2           3           4           5           6           7           8           9          10
 IAtWgt=          16          16          14          12          12          12           1           1           1           1
 AtmWgt=  15.9949146  15.9949146  14.0030740  12.0000000  12.0000000  12.0000000   1.0078250   1.0078250   1.0078250   1.0078250
 NucSpn=           0           0           2           0           0           0           1           1           1           1
 AtZEff=   0.0000000   0.0000000   0.0000000   0.0000000   0.0000000   0.0000000   0.0000000   0.0000000   0.0000000   0.0000000
 NQMom=    0.0000000   0.0000000   2.0440000   0.0000000   0.0000000   0.0000000   0.0000000   0.0000000   0.0000000   0.0000000
 NMagM=    0.0000000   0.0000000   0.4037610   0.0000000   0.0000000   0.0000000   2.7928460   2.7928460   2.7928460   2.7928460
 AtZNuc=   8.0000000   8.0000000   7.0000000   6.0000000   6.0000000   6.0000000   1.0000000   1.0000000   1.0000000   1.0000000

  Atom        11          12          13
 IAtWgt=           1           1           1
 AtmWgt=   1.0078250   1.0078250   1.0078250
 NucSpn=           1           1           1
 AtZEff=   0.0000000   0.0000000   0.0000000
 NQMom=    0.0000000   0.0000000   0.0000000
 NMagM=    2.7928460   2.7928460   2.7928460
 AtZNuc=   1.0000000   1.0000000   1.0000000
 Leave Link  101 at Tue Feb 13 18:38:16 2024, MaxMem=  6442450944 cpu:               2.6 elap:               0.4
 (Enter /usr/local/g16_bin/l103.exe)

 GradGradGradGradGradGradGradGradGradGradGradGradGradGradGradGradGradGrad
 Berny optimization.
 Initialization pass.
                           ----------------------------
                           !    Initial Parameters    !
                           ! (Angstroms and Degrees)  !
 --------------------------                            --------------------------
 ! Name  Definition              Value          Derivative Info.                !
 --------------------------------------------------------------------------------
 ! R1    R(1,6)                  1.3591         estimate D2E/DX2                !
 ! R2    R(1,13)                 0.981          estimate D2E/DX2                !
 ! R3    R(2,6)                  1.2227         estimate D2E/DX2                !
 ! R4    R(3,4)                  1.4615         estimate D2E/DX2                !
 ! R5    R(3,11)                 1.0196         estimate D2E/DX2                !
 ! R6    R(3,12)                 1.0199         estimate D2E/DX2                !
 ! R7    R(4,5)                  1.5227         estimate D2E/DX2                !
 ! R8    R(4,6)                  1.5139         estimate D2E/DX2                !
 ! R9    R(4,7)                  1.095          estimate D2E/DX2                !
 ! R10   R(5,8)                  1.0956         estimate D2E/DX2                !
 ! R11   R(5,9)                  1.0957         estimate D2E/DX2                !
 ! R12   R(5,10)                 1.0962         estimate D2E/DX2                !
 ! A1    A(6,1,13)             111.8647         estimate D2E/DX2                !
 ! A2    A(4,3,11)             109.4917         estimate D2E/DX2                !
 ! A3    A(4,3,12)             109.8815         estimate D2E/DX2                !
 ! A4    A(11,3,12)            105.7649         estimate D2E/DX2                !
 ! A5    A(3,4,5)              109.7306         estimate D2E/DX2                !
 ! A6    A(3,4,6)              108.0946         estimate D2E/DX2                !
 ! A7    A(3,4,7)              108.6883         estimate D2E/DX2                !
 ! A8    A(5,4,6)              110.8161         estimate D2E/DX2                !
 ! A9    A(5,4,7)              111.0399         estimate D2E/DX2                !
 ! A10   A(6,4,7)              108.392          estimate D2E/DX2                !
 ! A11   A(4,5,8)              110.9848         estimate D2E/DX2                !
 ! A12   A(4,5,9)              111.1692         estimate D2E/DX2                !
 ! A13   A(4,5,10)             111.6138         estimate D2E/DX2                !
 ! A14   A(8,5,9)              107.4403         estimate D2E/DX2                !
 ! A15   A(8,5,10)             107.2511         estimate D2E/DX2                !
 ! A16   A(9,5,10)             108.1906         estimate D2E/DX2                !
 ! A17   A(1,6,2)              123.2249         estimate D2E/DX2                !
 ! A18   A(1,6,4)              110.3785         estimate D2E/DX2                !
 ! A19   A(2,6,4)              126.3939         estimate D2E/DX2                !
 ! D1    D(13,1,6,2)            -0.2583         estimate D2E/DX2                !
 ! D2    D(13,1,6,4)          -179.6906         estimate D2E/DX2                !
 ! D3    D(11,3,4,5)            60.1152         estimate D2E/DX2                !
 ! D4    D(11,3,4,6)          -178.9298         estimate D2E/DX2                !
 ! D5    D(11,3,4,7)           -61.4826         estimate D2E/DX2                !
 ! D6    D(12,3,4,5)           -55.6367         estimate D2E/DX2                !
 ! D7    D(12,3,4,6)            65.3183         estimate D2E/DX2                !
 ! D8    D(12,3,4,7)          -177.2346         estimate D2E/DX2                !
 ! D9    D(3,4,5,8)           -176.9764         estimate D2E/DX2                !
 ! D10   D(3,4,5,9)            -57.4537         estimate D2E/DX2                !
 ! D11   D(3,4,5,10)            63.445          estimate D2E/DX2                !
 ! D12   D(6,4,5,8)             63.7254         estimate D2E/DX2                !
 ! D13   D(6,4,5,9)           -176.7519         estimate D2E/DX2                !
 ! D14   D(6,4,5,10)           -55.8532         estimate D2E/DX2                !
 ! D15   D(7,4,5,8)            -56.7989         estimate D2E/DX2                !
 ! D16   D(7,4,5,9)             62.7238         estimate D2E/DX2                !
 ! D17   D(7,4,5,10)          -176.3775         estimate D2E/DX2                !
 ! D18   D(3,4,6,1)             59.1325         estimate D2E/DX2                !
 ! D19   D(3,4,6,2)           -120.2775         estimate D2E/DX2                !
 ! D20   D(5,4,6,1)            179.41           estimate D2E/DX2                !
 ! D21   D(5,4,6,2)              0.0            estimate D2E/DX2                !
 ! D22   D(7,4,6,1)            -58.5051         estimate D2E/DX2                !
 ! D23   D(7,4,6,2)            122.0849         estimate D2E/DX2                !
 --------------------------------------------------------------------------------
 Trust Radius=3.00D-01 FncErr=1.00D-07 GrdErr=1.00D-06 EigMax=2.50D+02 EigMin=1.00D-04
 Number of steps in this run=     64 maximum allowed number of steps=    100.
 GradGradGradGradGradGradGradGradGradGradGradGradGradGradGradGradGradGrad

 Leave Link  103 at Tue Feb 13 18:38:16 2024, MaxMem=  6442450944 cpu:               0.3 elap:               0.1
 (Enter /usr/local/g16_bin/l202.exe)
                          Input orientation:                          
 ---------------------------------------------------------------------
 Center     Atomic      Atomic             Coordinates (Angstroms)
 Number     Number       Type             X           Y           Z
 ---------------------------------------------------------------------
      1          8           0        1.293200    1.070270    0.797870
      2          8           0        1.371360   -0.512850   -0.830200
      3          7           0       -1.410500    1.150700    0.182100
      4          6           0       -0.708500   -0.113600    0.393700
      5          6           0       -1.334500   -1.200000   -0.470200
      6          6           0        0.747000    0.090300    0.030800
      7          1           0       -0.766600   -0.373700    1.455800
      8          1           0       -0.858000   -2.169500   -0.287800
      9          1           0       -2.402300   -1.312700   -0.252100
     10          1           0       -1.224800   -0.979700   -1.538400
     11          1           0       -2.391600    1.042000    0.437600
     12          1           0       -1.407100    1.387500   -0.809900
     13          1           0        2.236590    1.224010    0.577020
 ---------------------------------------------------------------------
                    Distance matrix (angstroms):
                    1          2          3          4          5
     1  O    0.000000
     2  O    2.272221   0.000000
     3  N    2.774101   3.395717   0.000000
     4  C    2.360446   2.446048   1.461517   0.000000
     5  C    3.696882   2.814863   2.440709   1.522650   0.000000
     6  C    1.359070   1.222676   2.408764   1.513853   2.499703
     7  H    2.600134   3.133055   2.088232   1.095027   2.171349
     8  H    4.037629   2.829970   3.398498   2.171064   1.095560
     9  H    4.520808   3.900573   2.690824   2.173444   1.095658
    10  H    4.000107   2.731216   2.744669   2.179382   1.096183
    11  H    3.702478   4.264357   1.019634   2.042098   2.639721
    12  H    3.158667   3.366242   1.019877   2.046948   2.610713
    13  H    0.981018   2.396993   3.669142   3.239809   4.441304
                    6          7          8          9         10
     6  C    0.000000
     7  H    2.130001   0.000000
     8  H    2.790023   2.504674   0.000000
     9  H    3.459268   2.544437   1.766421   0.000000
    10  H    2.737752   3.089080   1.764700   1.775377   0.000000
    11  H    3.304849   2.383603   3.632061   2.453653   3.058311
    12  H    2.651349   2.940317   3.636805   2.931321   2.483462
    13  H    1.950008   3.513415   4.673362   5.351788   4.616553
                   11         12         13
    11  H    0.000000
    12  H    1.626305   0.000000
    13  H    4.633865   3.902147   0.000000
 Stoichiometry    C3H7NO2
 Framework group  C1[X(C3H7NO2)]
 Deg. of freedom    33
 Full point group                 C1      NOp   1
 Largest Abelian subgroup         C1      NOp   1
 Largest concise Abelian subgroup C1      NOp   1
                         Standard orientation:                         
 ---------------------------------------------------------------------
 Center     Atomic      Atomic             Coordinates (Angstroms)
 Number     Number       Type             X           Y           Z
 ---------------------------------------------------------------------
      1          8           0        1.645098   -0.818940   -0.263518
      2          8           0        1.134656    1.293874    0.398643
      3          7           0       -0.994070   -1.351761    0.404710
      4          6           0       -0.627024   -0.196805   -0.412227
      5          6           0       -1.602542    0.944139   -0.157131
      6          6           0        0.784173    0.209653   -0.044713
      7          1           0       -0.637432   -0.494782   -1.465880
      8          1           0       -1.378255    1.803057   -0.799164
      9          1           0       -2.633361    0.637705   -0.366837
     10          1           0       -1.553628    1.292714    0.881002
     11          1           0       -1.936666   -1.654919    0.161275
     12          1           0       -1.034758   -1.082523    1.387566
     13          1           0        2.566920   -0.580315   -0.027515
 ---------------------------------------------------------------------
 Rotational constants (GHZ):           5.1294495           3.2084224           2.2155051
 Leave Link  202 at Tue Feb 13 18:38:16 2024, MaxMem=  6442450944 cpu:               0.3 elap:               0.1
 (Enter /usr/local/g16_bin/l301.exe)
 Standard basis: def2TZVP (5D, 7F)
 Ernie: Thresh=  0.10000D-02 Tol=  0.10000D-05 Strict=F.
 There are   258 symmetry adapted cartesian basis functions of A   symmetry.
 There are   228 symmetry adapted basis functions of A   symmetry.
   228 basis functions,   362 primitive gaussians,   258 cartesian basis functions
    24 alpha electrons       24 beta electrons
       nuclear repulsion energy       249.0715043672 Hartrees.
 IExCor= 4336 DFT=T Ex+Corr=M062X ExCW=0 ScaHFX=  0.540000
 ScaDFX=  1.000000  1.000000  1.000000  1.000000 ScalE2=  1.000000  1.000000
 IRadAn=      5 IRanWt=     -1 IRanGd=            0 ICorTp=0 IEmpDi=  4
 NAtoms=   13 NActive=   13 NUniq=   13 SFac= 1.00D+00 NAtFMM=   60 NAOKFM=F Big=F
 Integral buffers will be    131072 words long.
 Raffenetti 2 integral format.
 Two-electron integral symmetry is turned on.
 Leave Link  301 at Tue Feb 13 18:38:16 2024, MaxMem=  6442450944 cpu:               0.8 elap:               0.1
 (Enter /usr/local/g16_bin/l302.exe)
 NPDir=0 NMtPBC=     1 NCelOv=     1 NCel=       1 NClECP=     1 NCelD=      1
         NCelK=      1 NCelE2=     1 NClLst=     1 CellRange=     0.0.
 One-electron integrals computed using PRISM.
 One-electron integral symmetry used in STVInt
   1 Symmetry operations used in ECPInt.
 ECPInt:  NShTT=    4465 NPrTT=   13356 LenC2=    4421 LenP2D=   10940.
 LDataN:  DoStor=T MaxTD1= 6 Len=  172
 GSVD:  received Info=                   1 from GESDD.
 NBasis=   228 RedAO= T EigKep=  1.67D-04  NBF=   228
 NBsUse=   228 1.00D-06 EigRej= -1.00D+00 NBFU=   228
 Precomputing XC quadrature grid using
 IXCGrd= 4 IRadAn=           5 IRanWt=          -1 IRanGd=           0 AccXCQ= 0.00D+00.
 Generated NRdTot=       0 NPtTot=           0 NUsed=           0 NTot=          32
 NSgBfM=   257   257   257   257   257 MxSgAt=    13 MxSgA2=    13.
 Leave Link  302 at Tue Feb 13 18:38:17 2024, MaxMem=  6442450944 cpu:               3.8 elap:               0.3
 (Enter /usr/local/g16_bin/l303.exe)
 DipDrv:  MaxL=1.
 Leave Link  303 at Tue Feb 13 18:38:17 2024, MaxMem=  6442450944 cpu:               0.4 elap:               0.1
 (Enter /usr/local/g16_bin/l401.exe)
 ExpMin= 9.52D-02 ExpMax= 2.70D+04 ExpMxC= 9.22D+02 IAcc=3 IRadAn=         5 AccDes= 0.00D+00
 Harris functional with IExCor= 1009 and IRadAn=       5 diagonalized for initial guess.
 HarFok:  IExCor= 1009 AccDes= 0.00D+00 IRadAn=         5 IDoV= 1 UseB2=F ITyADJ=14
 ICtDFT=  3500011 ScaDFX=  1.000000  1.000000  1.000000  1.000000
 FoFCou: FMM=F IPFlag=           0 FMFlag=      100000 FMFlg1=           0
         NFxFlg=           0 DoJE=T BraDBF=F KetDBF=T FulRan=T
         wScrn=  0.000000 ICntrl=       500 IOpCl=  0 I1Cent=   200000004 NGrid=           0
         NMat0=    1 NMatS0=      1 NMatT0=    0 NMatD0=    1 NMtDS0=    0 NMtDT0=    0
 Petite list used in FoFCou.
 Harris En= -323.615529238249    
 JPrj=0 DoOrth=F DoCkMO=F.
 Leave Link  401 at Tue Feb 13 18:38:17 2024, MaxMem=  6442450944 cpu:               9.4 elap:               0.7
 (Enter /usr/local/g16_bin/l502.exe)
 Integral symmetry usage will be decided dynamically.
 Closed shell SCF:
 Using DIIS extrapolation, IDIIS=  1040.
 NGot=  6442450944 LenX=  6442310950 LenY=  6442243945
 Requested convergence on RMS density matrix=1.00D-08 within 128 cycles.
 Requested convergence on MAX density matrix=1.00D-06.
 Requested convergence on             energy=1.00D-06.
 No special actions if energy rises.
 Fock matrices will be formed incrementally for  20 cycles.
 Integral accuracy reduced to 1.0D-05 until final iterations.

 Cycle   1  Pass 0  IDiag  1:
 FoFJK:  IHMeth= 1 ICntrl=       0 DoSepK=F KAlg= 0 I1Cent=           0 FoldK=F
 IRaf= 980000000 NMat=       1 IRICut=       1 DoRegI=T DoRafI=F ISym2E= 0 IDoP0=0 IntGTp=1.
 FoFCou: FMM=F IPFlag=           0 FMFlag=      100000 FMFlg1=           0
         NFxFlg=           0 DoJE=F BraDBF=F KetDBF=F FulRan=T
         wScrn=  0.000000 ICntrl=         0 IOpCl=  0 I1Cent=           0 NGrid=           0
         NMat0=    1 NMatS0=      1 NMatT0=    0 NMatD0=    1 NMtDS0=    0 NMtDT0=    0
 Symmetry not used in FoFCou.
 E= -323.520294263365    
 DIIS: error= 2.29D-02 at cycle   1 NSaved=   1.
 NSaved= 1 IEnMin= 1 EnMin= -323.520294263365     IErMin= 1 ErrMin= 2.29D-02
 ErrMax= 2.29D-02  0.00D+00 EMaxC= 1.00D-01 BMatC= 3.09D-01 BMatP= 3.09D-01
 IDIUse=3 WtCom= 7.71D-01 WtEn= 2.29D-01
 Coeff-Com:  0.100D+01
 Coeff-En:   0.100D+01
 Coeff:      0.100D+01
 Gap=     0.274 Goal=   None    Shift=    0.000
 DSYEVD-2 returned Info=       46028 IAlg= 4 N=   228 NDim=   228 NE2=    28255454 trying  DSYEV.
 GapD=    0.274 DampG=1.000 DampE=0.500 DampFc=0.5000 IDamp=-1.
 Damping current iteration by 5.00D-01
 RMSDP=4.13D-03 MaxDP=3.09D-01              OVMax= 1.79D-01

 Cycle   2  Pass 0  IDiag  1:
 RMSU=  2.06D-03    CP:  9.86D-01
 E= -323.622682073974     Delta-E=       -0.102387810609 Rises=F Damp=T
 DIIS: error= 6.06D-03 at cycle   2 NSaved=   2.
 NSaved= 2 IEnMin= 2 EnMin= -323.622682073974     IErMin= 2 ErrMin= 6.06D-03
 ErrMax= 6.06D-03  0.00D+00 EMaxC= 1.00D-01 BMatC= 2.21D-02 BMatP= 3.09D-01
 IDIUse=3 WtCom= 9.39D-01 WtEn= 6.06D-02
 Coeff-Com:  0.291D-02 0.997D+00
 Coeff-En:   0.214D-01 0.979D+00
 Coeff:      0.404D-02 0.996D+00
 Gap=     0.351 Goal=   None    Shift=    0.000
 DSYEVD-2 returned Info=       46028 IAlg= 4 N=   228 NDim=   228 NE2=    28255454 trying  DSYEV.
 RMSDP=1.01D-03 MaxDP=4.11D-02 DE=-1.02D-01 OVMax= 9.76D-02

 Cycle   3  Pass 0  IDiag  1:
 RMSU=  9.59D-04    CP:  9.82D-01  8.48D-01
 E= -323.729485018378     Delta-E=       -0.106802944404 Rises=F Damp=F
 DIIS: error= 3.44D-03 at cycle   3 NSaved=   3.
 NSaved= 3 IEnMin= 3 EnMin= -323.729485018378     IErMin= 3 ErrMin= 3.44D-03
 ErrMax= 3.44D-03  0.00D+00 EMaxC= 1.00D-01 BMatC= 1.03D-02 BMatP= 2.21D-02
 IDIUse=3 WtCom= 9.66D-01 WtEn= 3.44D-02
 Coeff-Com: -0.544D-01 0.398D+00 0.656D+00
 Coeff-En:   0.000D+00 0.000D+00 0.100D+01
 Coeff:     -0.525D-01 0.385D+00 0.668D+00
 Gap=     0.349 Goal=   None    Shift=    0.000
 DSYEVD-2 returned Info=       46028 IAlg= 4 N=   228 NDim=   228 NE2=    28255454 trying  DSYEV.
 RMSDP=4.35D-04 MaxDP=1.59D-02 DE=-1.07D-01 OVMax= 4.55D-02

 Cycle   4  Pass 0  IDiag  1:
 RMSU=  3.90D-04    CP:  9.83D-01  8.96D-01  8.30D-01
 E= -323.734578359711     Delta-E=       -0.005093341333 Rises=F Damp=F
 DIIS: error= 2.33D-03 at cycle   4 NSaved=   4.
 NSaved= 4 IEnMin= 4 EnMin= -323.734578359711     IErMin= 4 ErrMin= 2.33D-03
 ErrMax= 2.33D-03  0.00D+00 EMaxC= 1.00D-01 BMatC= 3.34D-03 BMatP= 1.03D-02
 IDIUse=3 WtCom= 9.77D-01 WtEn= 2.33D-02
 Coeff-Com: -0.261D-01 0.704D-01 0.389D+00 0.567D+00
 Coeff-En:   0.000D+00 0.000D+00 0.255D+00 0.745D+00
 Coeff:     -0.255D-01 0.688D-01 0.386D+00 0.571D+00
 Gap=     0.343 Goal=   None    Shift=    0.000
 DSYEVD-2 returned Info=       46028 IAlg= 4 N=   228 NDim=   228 NE2=    28255454 trying  DSYEV.
 RMSDP=1.94D-04 MaxDP=6.41D-03 DE=-5.09D-03 OVMax= 1.48D-02

 Cycle   5  Pass 0  IDiag  1:
 RMSU=  7.25D-05    CP:  9.82D-01  8.75D-01  9.22D-01  6.15D-01
 E= -323.736930388040     Delta-E=       -0.002352028329 Rises=F Damp=F
 DIIS: error= 3.61D-04 at cycle   5 NSaved=   5.
 NSaved= 5 IEnMin= 5 EnMin= -323.736930388040     IErMin= 5 ErrMin= 3.61D-04
 ErrMax= 3.61D-04  0.00D+00 EMaxC= 1.00D-01 BMatC= 7.76D-05 BMatP= 3.34D-03
 IDIUse=3 WtCom= 9.96D-01 WtEn= 3.61D-03
 Coeff-Com: -0.810D-02 0.141D-01 0.145D+00 0.249D+00 0.600D+00
 Coeff-En:   0.000D+00 0.000D+00 0.000D+00 0.000D+00 0.100D+01
 Coeff:     -0.807D-02 0.140D-01 0.144D+00 0.248D+00 0.602D+00
 Gap=     0.345 Goal=   None    Shift=    0.000
 DSYEVD-2 returned Info=       46028 IAlg= 4 N=   228 NDim=   228 NE2=    28255454 trying  DSYEV.
 RMSDP=2.78D-05 MaxDP=9.02D-04 DE=-2.35D-03 OVMax= 2.68D-03

 Cycle   6  Pass 0  IDiag  1:
 RMSU=  2.22D-05    CP:  9.81D-01  8.75D-01  9.24D-01  6.39D-01  8.08D-01
 E= -323.736989009049     Delta-E=       -0.000058621009 Rises=F Damp=F
 DIIS: error= 9.47D-05 at cycle   6 NSaved=   6.
 NSaved= 6 IEnMin= 6 EnMin= -323.736989009049     IErMin= 6 ErrMin= 9.47D-05
 ErrMax= 9.47D-05  0.00D+00 EMaxC= 1.00D-01 BMatC= 5.76D-06 BMatP= 7.76D-05
 IDIUse=1 WtCom= 1.00D+00 WtEn= 0.00D+00
 Coeff-Com: -0.237D-03-0.176D-02 0.153D-01 0.304D-01 0.226D+00 0.730D+00
 Coeff:     -0.237D-03-0.176D-02 0.153D-01 0.304D-01 0.226D+00 0.730D+00
 Gap=     0.345 Goal=   None    Shift=    0.000
 DSYEVD-2 returned Info=       46028 IAlg= 4 N=   228 NDim=   228 NE2=    28255454 trying  DSYEV.
 RMSDP=1.67D-05 MaxDP=8.38D-04 DE=-5.86D-05 OVMax= 6.11D-04

 Cycle   7  Pass 0  IDiag  1:
 RMSU=  1.01D-05    CP:  9.81D-01  8.71D-01  9.32D-01  6.38D-01  8.93D-01
                    CP:  9.56D-01
 E= -323.736994222174     Delta-E=       -0.000005213126 Rises=F Damp=F
 DIIS: error= 2.80D-05 at cycle   7 NSaved=   7.
 NSaved= 7 IEnMin= 7 EnMin= -323.736994222174     IErMin= 7 ErrMin= 2.80D-05
 ErrMax= 2.80D-05  0.00D+00 EMaxC= 1.00D-01 BMatC= 4.04D-07 BMatP= 5.76D-06
 IDIUse=1 WtCom= 1.00D+00 WtEn= 0.00D+00
 Coeff-Com:  0.966D-03-0.232D-02-0.117D-01-0.221D-01-0.523D-02 0.159D+00
 Coeff-Com:  0.881D+00
 Coeff:      0.966D-03-0.232D-02-0.117D-01-0.221D-01-0.523D-02 0.159D+00
 Coeff:      0.881D+00
 Gap=     0.345 Goal=   None    Shift=    0.000
 DSYEVD-2 returned Info=       46028 IAlg= 4 N=   228 NDim=   228 NE2=    28255454 trying  DSYEV.
 RMSDP=6.66D-06 MaxDP=4.03D-04 DE=-5.21D-06 OVMax= 3.72D-04

 Initial convergence to 1.0D-05 achieved.  Increase integral accuracy.
 Cycle   8  Pass 1  IDiag  1:
 E= -323.737004141738     Delta-E=       -0.000009919564 Rises=F Damp=F
 DIIS: error= 2.77D-05 at cycle   1 NSaved=   1.
 NSaved= 1 IEnMin= 1 EnMin= -323.737004141738     IErMin= 1 ErrMin= 2.77D-05
 ErrMax= 2.77D-05  0.00D+00 EMaxC= 1.00D-01 BMatC= 2.45D-07 BMatP= 2.45D-07
 IDIUse=1 WtCom= 1.00D+00 WtEn= 0.00D+00
 Coeff-Com:  0.100D+01
 Coeff:      0.100D+01
 Gap=     0.345 Goal=   None    Shift=    0.000
 DSYEVD-2 returned Info=       46028 IAlg= 4 N=   228 NDim=   228 NE2=    28255454 trying  DSYEV.
 RMSDP=6.66D-06 MaxDP=4.03D-04 DE=-9.92D-06 OVMax= 1.25D-04

 Cycle   9  Pass 1  IDiag  1:
 RMSU=  7.37D-06    CP:  1.00D+00
 E= -323.737004261367     Delta-E=       -0.000000119629 Rises=F Damp=F
 DIIS: error= 1.53D-05 at cycle   2 NSaved=   2.
 NSaved= 2 IEnMin= 2 EnMin= -323.737004261367     IErMin= 2 ErrMin= 1.53D-05
 ErrMax= 1.53D-05  0.00D+00 EMaxC= 1.00D-01 BMatC= 8.42D-08 BMatP= 2.45D-07
 IDIUse=1 WtCom= 1.00D+00 WtEn= 0.00D+00
 Coeff-Com:  0.321D+00 0.679D+00
 Coeff:      0.321D+00 0.679D+00
 Gap=     0.345 Goal=   None    Shift=    0.000
 DSYEVD-2 returned Info=       46028 IAlg= 4 N=   228 NDim=   228 NE2=    28255454 trying  DSYEV.
 RMSDP=1.23D-06 MaxDP=4.41D-05 DE=-1.20D-07 OVMax= 1.31D-04

 Cycle  10  Pass 1  IDiag  1:
 RMSU=  1.22D-06    CP:  1.00D+00  1.01D+00
 E= -323.737004309155     Delta-E=       -0.000000047788 Rises=F Damp=F
 DIIS: error= 9.30D-06 at cycle   3 NSaved=   3.
 NSaved= 3 IEnMin= 3 EnMin= -323.737004309155     IErMin= 3 ErrMin= 9.30D-06
 ErrMax= 9.30D-06  0.00D+00 EMaxC= 1.00D-01 BMatC= 3.02D-08 BMatP= 8.42D-08
 IDIUse=1 WtCom= 1.00D+00 WtEn= 0.00D+00
 Coeff-Com: -0.870D-02 0.365D+00 0.643D+00
 Coeff:     -0.870D-02 0.365D+00 0.643D+00
 Gap=     0.345 Goal=   None    Shift=    0.000
 DSYEVD-2 returned Info=       46028 IAlg= 4 N=   228 NDim=   228 NE2=    28255454 trying  DSYEV.
 RMSDP=7.45D-07 MaxDP=3.21D-05 DE=-4.78D-08 OVMax= 4.29D-05

 Cycle  11  Pass 1  IDiag  1:
 RMSU=  6.15D-07    CP:  1.00D+00  1.04D+00  6.92D-01
 E= -323.737004328926     Delta-E=       -0.000000019770 Rises=F Damp=F
 DIIS: error= 2.03D-06 at cycle   4 NSaved=   4.
 NSaved= 4 IEnMin= 4 EnMin= -323.737004328926     IErMin= 4 ErrMin= 2.03D-06
 ErrMax= 2.03D-06  0.00D+00 EMaxC= 1.00D-01 BMatC= 2.27D-09 BMatP= 3.02D-08
 IDIUse=1 WtCom= 1.00D+00 WtEn= 0.00D+00
 Coeff-Com: -0.229D-01 0.150D+00 0.313D+00 0.560D+00
 Coeff:     -0.229D-01 0.150D+00 0.313D+00 0.560D+00
 Gap=     0.345 Goal=   None    Shift=    0.000
 DSYEVD-2 returned Info=       46028 IAlg= 4 N=   228 NDim=   228 NE2=    28255454 trying  DSYEV.
 RMSDP=1.71D-07 MaxDP=7.78D-06 DE=-1.98D-08 OVMax= 2.36D-05

 Cycle  12  Pass 1  IDiag  1:
 RMSU=  1.56D-07    CP:  1.00D+00  1.04D+00  7.15D-01  9.30D-01
 E= -323.737004330828     Delta-E=       -0.000000001902 Rises=F Damp=F
 DIIS: error= 7.72D-07 at cycle   5 NSaved=   5.
 NSaved= 5 IEnMin= 5 EnMin= -323.737004330828     IErMin= 5 ErrMin= 7.72D-07
 ErrMax= 7.72D-07  0.00D+00 EMaxC= 1.00D-01 BMatC= 2.70D-10 BMatP= 2.27D-09
 IDIUse=1 WtCom= 1.00D+00 WtEn= 0.00D+00
 Coeff-Com: -0.413D-02-0.248D-01-0.589D-01 0.178D+00 0.910D+00
 Coeff:     -0.413D-02-0.248D-01-0.589D-01 0.178D+00 0.910D+00
 Gap=     0.345 Goal=   None    Shift=    0.000
 DSYEVD-2 returned Info=       46028 IAlg= 4 N=   228 NDim=   228 NE2=    28255454 trying  DSYEV.
 RMSDP=1.45D-07 MaxDP=7.91D-06 DE=-1.90D-09 OVMax= 7.23D-06

 Cycle  13  Pass 1  IDiag  1:
 RMSU=  5.69D-08    CP:  1.00D+00  1.04D+00  7.00D-01  1.14D+00  1.04D+00
 E= -323.737004331114     Delta-E=       -0.000000000286 Rises=F Damp=F
 DIIS: error= 2.46D-07 at cycle   6 NSaved=   6.
 NSaved= 6 IEnMin= 6 EnMin= -323.737004331114     IErMin= 6 ErrMin= 2.46D-07
 ErrMax= 2.46D-07  0.00D+00 EMaxC= 1.00D-01 BMatC= 4.36D-11 BMatP= 2.70D-10
 IDIUse=1 WtCom= 1.00D+00 WtEn= 0.00D+00
 Coeff-Com:  0.264D-02-0.389D-01-0.908D-01-0.800D-02 0.437D+00 0.698D+00
 Coeff:      0.264D-02-0.389D-01-0.908D-01-0.800D-02 0.437D+00 0.698D+00
 Gap=     0.345 Goal=   None    Shift=    0.000
 DSYEVD-2 returned Info=       46028 IAlg= 4 N=   228 NDim=   228 NE2=    28255454 trying  DSYEV.
 RMSDP=4.99D-08 MaxDP=2.56D-06 DE=-2.86D-10 OVMax= 3.53D-06

 Cycle  14  Pass 1  IDiag  1:
 RMSU=  2.02D-08    CP:  1.00D+00  1.04D+00  6.95D-01  1.21D+00  1.13D+00
                    CP:  1.04D+00
 E= -323.737004331163     Delta-E=       -0.000000000049 Rises=F Damp=F
 DIIS: error= 3.89D-08 at cycle   7 NSaved=   7.
 NSaved= 7 IEnMin= 7 EnMin= -323.737004331163     IErMin= 7 ErrMin= 3.89D-08
 ErrMax= 3.89D-08  0.00D+00 EMaxC= 1.00D-01 BMatC= 1.17D-12 BMatP= 4.36D-11
 IDIUse=1 WtCom= 1.00D+00 WtEn= 0.00D+00
 Coeff-Com:  0.861D-03-0.983D-02-0.232D-01-0.981D-02 0.749D-01 0.197D+00
 Coeff-Com:  0.770D+00
 Coeff:      0.861D-03-0.983D-02-0.232D-01-0.981D-02 0.749D-01 0.197D+00
 Coeff:      0.770D+00
 Gap=     0.345 Goal=   None    Shift=    0.000
 DSYEVD-2 returned Info=       39616 IAlg= 4 N=   228 NDim=   228 NE2=    28255454 trying  DSYEV.
 RMSDP=8.71D-09 MaxDP=4.75D-07 DE=-4.91D-11 OVMax= 4.87D-07

 SCF Done:  E(RM062X) =  -323.737004331     A.U. after   14 cycles
            NFock= 14  Conv=0.87D-08     -V/T= 2.0050
 KE= 3.221184117797D+02 PE=-1.256281504830D+03 EE= 3.613545843521D+02
 Leave Link  502 at Tue Feb 13 18:38:31 2024, MaxMem=  6442450944 cpu:             213.0 elap:              13.6
 (Enter /usr/local/g16_bin/l601.exe)
 Copying SCF densities to generalized density rwf, IOpCl= 0 IROHF=0.

 **********************************************************************

            Population analysis using the SCF Density.

 **********************************************************************

 Orbital symmetries:
       Occupied  (A) (A) (A) (A) (A) (A) (A) (A) (A) (A) (A) (A)
                 (A) (A) (A) (A) (A) (A) (A) (A) (A) (A) (A) (A)
       Virtual   (A) (A) (A) (A) (A) (A) (A) (A) (A) (A) (A) (A)
                 (A) (A) (A) (A) (A) (A) (A) (A) (A) (A) (A) (A)
                 (A) (A) (A) (A) (A) (A) (A) (A) (A) (A) (A) (A)
                 (A) (A) (A) (A) (A) (A) (A) (A) (A) (A) (A) (A)
                 (A) (A) (A) (A) (A) (A) (A) (A) (A) (A) (A) (A)
                 (A) (A) (A) (A) (A) (A) (A) (A) (A) (A) (A) (A)
                 (A) (A) (A) (A) (A) (A) (A) (A) (A) (A) (A) (A)
                 (A) (A) (A) (A) (A) (A) (A) (A) (A) (A) (A) (A)
                 (A) (A) (A) (A) (A) (A) (A) (A) (A) (A) (A) (A)
                 (A) (A) (A) (A) (A) (A) (A) (A) (A) (A) (A) (A)
                 (A) (A) (A) (A) (A) (A) (A) (A) (A) (A) (A) (A)
                 (A) (A) (A) (A) (A) (A) (A) (A) (A) (A) (A) (A)
                 (A) (A) (A) (A) (A) (A) (A) (A) (A) (A) (A) (A)
                 (A) (A) (A) (A) (A) (A) (A) (A) (A) (A) (A) (A)
                 (A) (A) (A) (A) (A) (A) (A) (A) (A) (A) (A) (A)
                 (A) (A) (A) (A) (A) (A) (A) (A) (A) (A) (A) (A)
                 (A) (A) (A) (A) (A) (A) (A) (A) (A) (A) (A) (A)
 The electronic state is 1-A.
 Alpha  occ. eigenvalues --  -19.67280 -19.62589 -14.73826 -10.68260 -10.58967
 Alpha  occ. eigenvalues --  -10.53251  -1.22781  -1.13713  -1.01185  -0.84709
 Alpha  occ. eigenvalues --   -0.77200  -0.67095  -0.61109  -0.57698  -0.55932
 Alpha  occ. eigenvalues --   -0.52095  -0.49747  -0.48491  -0.47986  -0.44206
 Alpha  occ. eigenvalues --   -0.43172  -0.39924  -0.36276  -0.31839
 Alpha virt. eigenvalues --    0.02687   0.06206   0.07364   0.09512   0.10885
 Alpha virt. eigenvalues --    0.12441   0.15378   0.17388   0.18362   0.20123
 Alpha virt. eigenvalues --    0.21536   0.23485   0.25067   0.27191   0.28063
 Alpha virt. eigenvalues --    0.30830   0.31657   0.34522   0.35958   0.37038
 Alpha virt. eigenvalues --    0.39382   0.41249   0.42995   0.43997   0.45056
 Alpha virt. eigenvalues --    0.45886   0.47662   0.48705   0.50630   0.51709
 Alpha virt. eigenvalues --    0.52518   0.54107   0.54732   0.56882   0.58179
 Alpha virt. eigenvalues --    0.59445   0.60812   0.62700   0.65014   0.72301
 Alpha virt. eigenvalues --    0.74826   0.75813   0.77052   0.82811   0.85987
 Alpha virt. eigenvalues --    0.86196   0.88940   0.93613   0.94728   1.00569
 Alpha virt. eigenvalues --    1.03651   1.06826   1.08598   1.11155   1.13680
 Alpha virt. eigenvalues --    1.18340   1.19025   1.26060   1.29240   1.33866
 Alpha virt. eigenvalues --    1.36065   1.37889   1.41392   1.45176   1.47857
 Alpha virt. eigenvalues --    1.50648   1.52845   1.56606   1.58294   1.59165
 Alpha virt. eigenvalues --    1.59938   1.63806   1.64345   1.66404   1.70353
 Alpha virt. eigenvalues --    1.74779   1.77492   1.81741   1.82428   1.86443
 Alpha virt. eigenvalues --    1.88609   1.93921   1.96209   1.98168   1.99254
 Alpha virt. eigenvalues --    2.01735   2.03025   2.05178   2.06969   2.10533
 Alpha virt. eigenvalues --    2.16205   2.16883   2.21775   2.23374   2.26723
 Alpha virt. eigenvalues --    2.27559   2.30482   2.32288   2.34823   2.37527
 Alpha virt. eigenvalues --    2.39472   2.42692   2.44783   2.51379   2.52553
 Alpha virt. eigenvalues --    2.54499   2.57866   2.58613   2.64571   2.68219
 Alpha virt. eigenvalues --    2.69174   2.70260   2.74973   2.78195   2.80992
 Alpha virt. eigenvalues --    2.85791   2.87605   2.90643   2.92666   2.95599
 Alpha virt. eigenvalues --    3.00034   3.05246   3.06039   3.08001   3.10854
 Alpha virt. eigenvalues --    3.13180   3.15488   3.16284   3.18783   3.21572
 Alpha virt. eigenvalues --    3.25011   3.27814   3.29972   3.32488   3.33290
 Alpha virt. eigenvalues --    3.38283   3.41111   3.42631   3.46966   3.50680
 Alpha virt. eigenvalues --    3.53154   3.56306   3.63416   3.64924   3.72553
 Alpha virt. eigenvalues --    3.81027   3.83832   3.86453   3.92065   3.94841
 Alpha virt. eigenvalues --    4.00562   4.02121   4.13533   4.18459   4.26050
 Alpha virt. eigenvalues --    4.28007   4.32622   4.37579   4.39414   4.47400
 Alpha virt. eigenvalues --    4.52847   4.55111   4.68596   4.74791   4.81087
 Alpha virt. eigenvalues --    4.82533   4.85958   4.88316   5.06840   5.13477
 Alpha virt. eigenvalues --    5.16110   5.18521   5.20976   5.22725   5.27857
 Alpha virt. eigenvalues --    5.36549   5.40636   5.46943   5.52364   5.58469
 Alpha virt. eigenvalues --    5.71116   5.74304   5.86597   5.87381   6.15125
 Alpha virt. eigenvalues --    6.18148   6.31442   6.32573   6.44043   6.46410
 Alpha virt. eigenvalues --    6.61610   6.68860   6.73532   6.81531   6.90097
 Alpha virt. eigenvalues --    7.05799   7.09096   7.27750  22.45271  22.66351
 Alpha virt. eigenvalues --   23.23586  32.11096  43.93621  43.99033
          Condensed to atoms (all electrons):
               1          2          3          4          5          6
     1  O    7.902141  -0.086012  -0.009077  -0.120856   0.008857   0.404581
     2  O   -0.086012   7.836542  -0.000107  -0.104982   0.014432   0.665318
     3  N   -0.009077  -0.000107   6.670636   0.195777  -0.064166  -0.001156
     4  C   -0.120856  -0.104982   0.195777   5.344868   0.301034   0.212239
     5  C    0.008857   0.014432  -0.064166   0.301034   5.056346  -0.039158
     6  C    0.404581   0.665318  -0.001156   0.212239  -0.039158   4.496921
     7  H    0.004787   0.002406  -0.033006   0.416810  -0.058828  -0.033563
     8  H   -0.000016  -0.000537   0.013977  -0.058399   0.403064   0.001210
     9  H   -0.000092   0.000902  -0.000682  -0.064605   0.427691   0.014654
    10  H    0.000085   0.003563  -0.007171   0.010623   0.378864  -0.020749
    11  H   -0.000298  -0.000522   0.383668  -0.062505   0.005630   0.006103
    12  H    0.001264   0.001133   0.367953  -0.036363  -0.004182  -0.012798
    13  H    0.287671   0.003582  -0.000452   0.016670  -0.001229  -0.027763
               7          8          9         10         11         12
     1  O    0.004787  -0.000016  -0.000092   0.000085  -0.000298   0.001264
     2  O    0.002406  -0.000537   0.000902   0.003563  -0.000522   0.001133
     3  N   -0.033006   0.013977  -0.000682  -0.007171   0.383668   0.367953
     4  C    0.416810  -0.058399  -0.064605   0.010623  -0.062505  -0.036363
     5  C   -0.058828   0.403064   0.427691   0.378864   0.005630  -0.004182
     6  C   -0.033563   0.001210   0.014654  -0.020749   0.006103  -0.012798
     7  H    0.550723  -0.000728  -0.005478   0.007959  -0.009761   0.008445
     8  H   -0.000728   0.537627  -0.023838  -0.017531   0.000443   0.000468
     9  H   -0.005478  -0.023838   0.540434  -0.029741   0.002099  -0.000768
    10  H    0.007959  -0.017531  -0.029741   0.520493  -0.000807   0.004776
    11  H   -0.009761   0.000443   0.002099  -0.000807   0.481182  -0.036113
    12  H    0.008445   0.000468  -0.000768   0.004776  -0.036113   0.471456
    13  H   -0.000715   0.000015   0.000026  -0.000028   0.000150  -0.000212
              13
     1  O    0.287671
     2  O    0.003582
     3  N   -0.000452
     4  C    0.016670
     5  C   -0.001229
     6  C   -0.027763
     7  H   -0.000715
     8  H    0.000015
     9  H    0.000026
    10  H   -0.000028
    11  H    0.000150
    12  H   -0.000212
    13  H    0.382764
 Mulliken charges:
               1
     1  O   -0.393035
     2  O   -0.335717
     3  N   -0.516195
     4  C   -0.050311
     5  C   -0.428356
     6  C    0.334162
     7  H    0.150951
     8  H    0.144244
     9  H    0.139398
    10  H    0.149664
    11  H    0.230731
    12  H    0.234941
    13  H    0.339521
 Sum of Mulliken charges =  -0.00000
 Mulliken charges with hydrogens summed into heavy atoms:
               1
     1  O   -0.053514
     2  O   -0.335717
     3  N   -0.050522
     4  C    0.100640
     5  C    0.004951
     6  C    0.334162
 Electronic spatial extent (au):  <R**2>=            581.0407
 Charge=             -0.0000 electrons
 Dipole moment (field-independent basis, Debye):
    X=             -1.2642    Y=             -0.6870    Z=             -0.3734  Tot=              1.4865
 Quadrupole moment (field-independent basis, Debye-Ang):
   XX=            -28.5948   YY=            -44.0381   ZZ=            -34.4803
   XY=             -0.9056   XZ=             -0.5039   YZ=             -1.6920
 Traceless Quadrupole moment (field-independent basis, Debye-Ang):
   XX=              7.1096   YY=             -8.3337   ZZ=              1.2241
   XY=             -0.9056   XZ=             -0.5039   YZ=             -1.6920
 Octapole moment (field-independent basis, Debye-Ang**2):
  XXX=             22.9355  YYY=              2.1491  ZZZ=              3.1640  XYY=             -5.0736
  XXY=            -12.1940  XXZ=              0.8625  XZZ=             -0.0483  YZZ=             -2.2124
  YYZ=             -1.8773  XYZ=             -2.0800
 Hexadecapole moment (field-independent basis, Debye-Ang**3):
 XXXX=           -318.0034 YYYY=           -274.6525 ZZZZ=            -69.7360 XXXY=             -0.7224
 XXXZ=              0.4607 YYYX=              1.8844 YYYZ=              0.0618 ZZZX=             -3.9095
 ZZZY=             -0.9659 XXYY=           -106.0162 XXZZ=            -80.6596 YYZZ=            -53.0277
 XXYZ=             -3.4893 YYXZ=             -1.8771 ZZXY=              2.8260
 N-N= 2.490715043672D+02 E-N=-1.256281514122D+03  KE= 3.221184117797D+02
 No NMR shielding tensors so no spin-rotation constants.
 Leave Link  601 at Tue Feb 13 18:38:31 2024, MaxMem=  6442450944 cpu:               2.4 elap:               0.3
 (Enter /usr/local/g16_bin/l701.exe)
 ... and contract with generalized density number  0.
 Compute integral first derivatives.
   1 Symmetry operations used in ECPInt.
 ECPInt:  NShTT=    4465 NPrTT=   13356 LenC2=    4421 LenP2D=   10940.
 LDataN:  DoStor=T MaxTD1= 7 Len=  274
 Leave Link  701 at Tue Feb 13 18:38:32 2024, MaxMem=  6442450944 cpu:               3.1 elap:               0.3
 (Enter /usr/local/g16_bin/l702.exe)
 L702 exits ... SP integral derivatives will be done elsewhere.
 Leave Link  702 at Tue Feb 13 18:38:32 2024, MaxMem=  6442450944 cpu:               0.3 elap:               0.1
 (Enter /usr/local/g16_bin/l703.exe)
 Integral derivatives from FoFJK, PRISM(SPDF).
 Compute integral first derivatives, UseDBF=F ICtDFT=           0.
 Calling FoFJK, ICntrl=      2127 FMM=F ISym2X=0 I1Cent= 0 IOpClX= 0 NMat=1 NMatS=1 NMatT=0.
 FoFJK:  IHMeth= 1 ICntrl=    2127 DoSepK=F KAlg= 0 I1Cent=           0 FoldK=F
 IRaf=         0 NMat=       1 IRICut=       1 DoRegI=T DoRafI=F ISym2E= 0 IDoP0=0 IntGTp=1.
 FoFCou: FMM=F IPFlag=           0 FMFlag=      100000 FMFlg1=         800
         NFxFlg=           0 DoJE=F BraDBF=F KetDBF=F FulRan=T
         wScrn=  0.000000 ICntrl=      2127 IOpCl=  0 I1Cent=           0 NGrid=           0
         NMat0=    1 NMatS0=      1 NMatT0=    0 NMatD0=    1 NMtDS0=    0 NMtDT0=    0
 Symmetry not used in FoFCou.
 Leave Link  703 at Tue Feb 13 18:38:37 2024, MaxMem=  6442450944 cpu:              72.4 elap:               4.7
 (Enter /usr/local/g16_bin/l716.exe)
 Dipole        =-4.97390583D-01-2.70292321D-01-1.46904166D-01
 ***** Axes restored to original set *****
 -------------------------------------------------------------------
 Center     Atomic                   Forces (Hartrees/Bohr)
 Number     Number              X              Y              Z
 -------------------------------------------------------------------
      1        8           0.004981049   -0.007767160   -0.007219470
      2        8          -0.022411784    0.020023380    0.029238280
      3        7          -0.004079659    0.009576108    0.003965220
      4        6          -0.016042467   -0.001302277   -0.017249939
      5        6           0.004854192   -0.016488115    0.001500716
      6        6           0.034277148   -0.002652792   -0.014168116
      7        1           0.001636687    0.001934850   -0.001910068
      8        1          -0.001103009    0.001416286   -0.002146221
      9        1           0.003659216    0.002860957    0.001519061
     10        1           0.001157936    0.001610217    0.004708718
     11        1           0.005872851    0.000236718    0.000061009
     12        1           0.001297081   -0.001677061    0.004022710
     13        1          -0.014099241   -0.007771110   -0.002321901
 -------------------------------------------------------------------
 Cartesian Forces:  Max     0.034277148 RMS     0.010912355
 Leave Link  716 at Tue Feb 13 18:38:37 2024, MaxMem=  6442450944 cpu:               0.4 elap:               0.1
 (Enter /usr/local/g16_bin/l103.exe)

 GradGradGradGradGradGradGradGradGradGradGradGradGradGradGradGradGradGrad
 Berny optimization.
 FormGI is forming the generalized inverse of G from B-inverse, IUseBI=4.
 GSVD:  received Info=                   1 from GESDD.
 Internal  Forces:  Max     0.041911250 RMS     0.007796860
 Search for a local minimum.
 Step number   1 out of a maximum of   64
 All quantities printed in internal units (Hartrees-Bohrs-Radians)
 RMS Force = .77969D-02 SwitMx=.10000D-02 MixMth= 1
 Mixed Optimization -- RFO/linear search
 Second derivative matrix not updated -- first step.
 ITU=  0
 DSYEVD-2 returned Info=         135 IAlg= 4 N=    33 NDim=    33 NE2=   195179053 trying  DSYEV.
     Eigenvalues ---    0.00466   0.00583   0.00878   0.00972   0.02233
     Eigenvalues ---    0.04519   0.04902   0.05023   0.05495   0.05592
     Eigenvalues ---    0.06644   0.16000   0.16000   0.16000   0.16000
     Eigenvalues ---    0.16000   0.16000   0.17185   0.17853   0.24999
     Eigenvalues ---    0.25000   0.30113   0.30966   0.34108   0.34167
     Eigenvalues ---    0.34178   0.34238   0.36775   0.44358   0.44397
     Eigenvalues ---    0.51188   0.53136   0.94207
 RFO step:  Lambda=-9.13970444D-03 EMin= 4.66326464D-03
 Linear search not attempted -- first point.
 Iteration  1 RMS(Cart)=  0.06392216 RMS(Int)=  0.00228651
 Iteration  2 RMS(Cart)=  0.00324902 RMS(Int)=  0.00047430
 Iteration  3 RMS(Cart)=  0.00000729 RMS(Int)=  0.00047424
 Iteration  4 RMS(Cart)=  0.00000000 RMS(Int)=  0.00047424
 ITry= 1 IFail=0 DXMaxC= 2.44D-01 DCOld= 1.00D+10 DXMaxT= 3.00D-01 DXLimC= 3.00D+00 Rises=F
 Variable       Old X    -DE/DX   Delta X   Delta X   Delta X     New X
                                 (Linear)    (Quad)   (Total)
    R1        2.56827  -0.02025   0.00000  -0.03747  -0.03747   2.53080
    R2        1.85385  -0.01425   0.00000  -0.02736  -0.02736   1.82650
    R3        2.31052  -0.04191   0.00000  -0.04406  -0.04406   2.26646
    R4        2.76187   0.00439   0.00000   0.01164   0.01164   2.77351
    R5        1.92683  -0.00566   0.00000  -0.01249  -0.01249   1.91434
    R6        1.92729  -0.00430   0.00000  -0.00949  -0.00949   1.91780
    R7        2.87739   0.00087   0.00000   0.00281   0.00281   2.88020
    R8        2.86077   0.00156   0.00000   0.00491   0.00491   2.86567
    R9        2.06930  -0.00240   0.00000  -0.00682  -0.00682   2.06248
   R10        2.07031  -0.00209   0.00000  -0.00596  -0.00596   2.06435
   R11        2.07049  -0.00356   0.00000  -0.01014  -0.01014   2.06035
   R12        2.07149  -0.00415   0.00000  -0.01185  -0.01185   2.05964
    A1        1.95241  -0.01453   0.00000  -0.08589  -0.08589   1.86652
    A2        1.91099  -0.00077   0.00000  -0.00305  -0.00305   1.90794
    A3        1.91779  -0.00172   0.00000  -0.00868  -0.00868   1.90911
    A4        1.84595   0.00154   0.00000   0.01231   0.01231   1.85826
    A5        1.91516   0.01356   0.00000   0.09852   0.09834   2.01350
    A6        1.88661  -0.00310   0.00000   0.00258   0.00112   1.88773
    A7        1.89697  -0.00439   0.00000  -0.03041  -0.03041   1.86656
    A8        1.93411  -0.00481   0.00000  -0.01150  -0.01354   1.92056
    A9        1.93801  -0.00244   0.00000  -0.02175  -0.02209   1.91592
   A10        1.89180   0.00097   0.00000  -0.03888  -0.03969   1.85211
   A11        1.93705   0.00390   0.00000   0.02749   0.02770   1.96475
   A12        1.94027  -0.00441   0.00000  -0.02701  -0.02726   1.91301
   A13        1.94803  -0.00411   0.00000  -0.02788  -0.02812   1.91991
   A14        1.87519   0.00117   0.00000   0.01369   0.01387   1.88906
   A15        1.87188   0.00030   0.00000   0.00343   0.00365   1.87554
   A16        1.88828   0.00351   0.00000   0.01255   0.01185   1.90013
   A17        2.15068  -0.00250   0.00000  -0.00949  -0.00989   2.14079
   A18        1.92647   0.00787   0.00000   0.03050   0.03010   1.95657
   A19        2.20599  -0.00536   0.00000  -0.02053  -0.02092   2.18506
    D1       -0.00451   0.00053   0.00000   0.02715   0.02731   0.02281
    D2       -3.13619  -0.00038   0.00000  -0.02242  -0.02258   3.12441
    D3        1.04921   0.00117   0.00000   0.00395   0.00319   1.05240
    D4       -3.12291   0.00150   0.00000   0.05025   0.05081  -3.07210
    D5       -1.07307  -0.00145   0.00000  -0.01105  -0.01085  -1.08392
    D6       -0.97104   0.00073   0.00000  -0.00421  -0.00498  -0.97602
    D7        1.14002   0.00105   0.00000   0.04208   0.04265   1.18267
    D8       -3.09333  -0.00189   0.00000  -0.01921  -0.01901  -3.11234
    D9       -3.08882  -0.00048   0.00000  -0.00197  -0.00175  -3.09057
   D10       -1.00276   0.00066   0.00000   0.01563   0.01563  -0.98713
   D11        1.10732  -0.00075   0.00000  -0.00626  -0.00578   1.10155
   D12        1.11222  -0.00228   0.00000  -0.06076  -0.06091   1.05131
   D13       -3.08490  -0.00114   0.00000  -0.04315  -0.04353  -3.12843
   D14       -0.97482  -0.00254   0.00000  -0.06504  -0.06494  -1.03976
   D15       -0.99133   0.00135   0.00000   0.01059   0.01049  -0.98084
   D16        1.09474   0.00249   0.00000   0.02820   0.02787   1.12260
   D17       -3.07837   0.00109   0.00000   0.00631   0.00646  -3.07191
   D18        1.03206  -0.00491   0.00000   0.01249   0.01291   1.04496
   D19       -2.09924  -0.00589   0.00000  -0.03912  -0.03859  -2.13783
   D20        3.13129   0.00688   0.00000   0.12807   0.12738  -3.02451
   D21       -0.00000   0.00590   0.00000   0.07646   0.07588   0.07588
   D22       -1.02111   0.00146   0.00000   0.06824   0.06834  -0.95277
   D23        2.13078   0.00048   0.00000   0.01663   0.01685   2.14763
         Item               Value     Threshold  Converged?
 Maximum Force            0.041911     0.000450     NO 
 RMS     Force            0.007797     0.000300     NO 
 Maximum Displacement     0.243728     0.001800     NO 
 RMS     Displacement     0.063179     0.001200     NO 
 Predicted change in Energy=-4.902200D-03
 Lowest energy point so far.  Saving SCF results.
 GradGradGradGradGradGradGradGradGradGradGradGradGradGradGradGradGradGrad

 Leave Link  103 at Tue Feb 13 18:38:37 2024, MaxMem=  6442450944 cpu:               1.1 elap:               0.2
 (Enter /usr/local/g16_bin/l202.exe)
                          Input orientation:                          
 ---------------------------------------------------------------------
 Center     Atomic      Atomic             Coordinates (Angstroms)
 Number     Number       Type             X           Y           Z
 ---------------------------------------------------------------------
      1          8           0        1.297429    1.033422    0.822349
      2          8           0        1.336170   -0.472479   -0.819696
      3          7           0       -1.432734    1.200435    0.185896
      4          6           0       -0.740419   -0.083108    0.351110
      5          6           0       -1.301420   -1.237994   -0.470178
      6          6           0        0.725254    0.124691    0.022108
      7          1           0       -0.780285   -0.331668    1.413098
      8          1           0       -0.785749   -2.180960   -0.274589
      9          1           0       -2.358199   -1.372528   -0.238113
     10          1           0       -1.198624   -1.023548   -1.533829
     11          1           0       -2.401143    1.097157    0.464702
     12          1           0       -1.441699    1.454277   -0.796658
     13          1           0        2.225668    1.095035    0.560090
 ---------------------------------------------------------------------
                    Distance matrix (angstroms):
                    1          2          3          4          5
     1  O    0.000000
     2  O    2.228352   0.000000
     3  N    2.808337   3.387726   0.000000
     4  C    2.370977   2.415495   1.467679   0.000000
     5  C    3.685645   2.768584   2.528559   1.524138   0.000000
     6  C    1.339240   1.199360   2.416808   1.516449   2.491317
     7  H    2.555260   3.079704   2.068588   1.091416   2.154004
     8  H    3.984364   2.778234   3.473394   2.189643   1.092409
     9  H    4.502976   3.846646   2.767022   2.151046   1.090291
    10  H    4.001623   2.690510   2.821057   2.155777   1.089912
    11  H    3.716370   4.252169   1.013023   2.040572   2.745236
    12  H    3.209537   3.380751   1.014854   2.042724   2.715620
    13  H    0.966541   2.269828   3.678999   3.198337   4.352566
                    6          7          8          9         10
     6  C    0.000000
     7  H    2.099944   0.000000
     8  H    2.772577   2.503637   0.000000
     9  H    3.437595   2.509920   1.768472   0.000000
    10  H    2.727764   3.055828   1.759475   1.773494   0.000000
    11  H    3.303927   2.359698   3.728552   2.568100   3.152391
    12  H    2.670929   2.917206   3.730653   3.023702   2.596560
    13  H    1.866075   3.434946   4.527412   5.266671   4.538575
                   11         12         13
    11  H    0.000000
    12  H    1.624530   0.000000
    13  H    4.627794   3.926755   0.000000
 Stoichiometry    C3H7NO2
 Framework group  C1[X(C3H7NO2)]
 Deg. of freedom    33
 Full point group                 C1      NOp   1
 RotChk:  IX=0 Diff= 2.44D-02
 Largest Abelian subgroup         C1      NOp   1
 Largest concise Abelian subgroup C1      NOp   1
                         Standard orientation:                         
 ---------------------------------------------------------------------
 Center     Atomic      Atomic             Coordinates (Angstroms)
 Number     Number       Type             X           Y           Z
 ---------------------------------------------------------------------
      1          8           0        1.647488   -0.790915   -0.305865
      2          8           0        1.121553    1.244699    0.432524
      3          7           0       -1.005249   -1.391935    0.393078
      4          6           0       -0.645676   -0.192107   -0.371905
      5          6           0       -1.568026    1.005859   -0.179177
      6          6           0        0.778921    0.186264   -0.015564
      7          1           0       -0.628576   -0.479341   -1.424707
      8          1           0       -1.288820    1.855277   -0.806783
      9          1           0       -2.591898    0.722478   -0.424361
     10          1           0       -1.533443    1.340010    0.857673
     11          1           0       -1.931087   -1.698824    0.119476
     12          1           0       -1.059107   -1.158983    1.379365
     13          1           0        2.526033   -0.467440   -0.065606
 ---------------------------------------------------------------------
 Rotational constants (GHZ):           5.0757626           3.2420166           2.2261853
 Leave Link  202 at Tue Feb 13 18:38:37 2024, MaxMem=  6442450944 cpu:               0.2 elap:               0.1
 (Enter /usr/local/g16_bin/l301.exe)
 Standard basis: def2TZVP (5D, 7F)
 Ernie: Thresh=  0.10000D-02 Tol=  0.10000D-05 Strict=F.
 There are   258 symmetry adapted cartesian basis functions of A   symmetry.
 There are   228 symmetry adapted basis functions of A   symmetry.
   228 basis functions,   362 primitive gaussians,   258 cartesian basis functions
    24 alpha electrons       24 beta electrons
       nuclear repulsion energy       250.1052004220 Hartrees.
 IExCor= 4336 DFT=T Ex+Corr=M062X ExCW=0 ScaHFX=  0.540000
 ScaDFX=  1.000000  1.000000  1.000000  1.000000 ScalE2=  1.000000  1.000000
 IRadAn=      5 IRanWt=     -1 IRanGd=            0 ICorTp=0 IEmpDi=  4
 NAtoms=   13 NActive=   13 NUniq=   13 SFac= 1.00D+00 NAtFMM=   60 NAOKFM=F Big=F
 Integral buffers will be    131072 words long.
 Raffenetti 2 integral format.
 Two-electron integral symmetry is turned on.
 Leave Link  301 at Tue Feb 13 18:38:37 2024, MaxMem=  6442450944 cpu:               0.8 elap:               0.1
 (Enter /usr/local/g16_bin/l302.exe)
 NPDir=0 NMtPBC=     1 NCelOv=     1 NCel=       1 NClECP=     1 NCelD=      1
         NCelK=      1 NCelE2=     1 NClLst=     1 CellRange=     0.0.
 One-electron integrals computed using PRISM.
 One-electron integral symmetry used in STVInt
   1 Symmetry operations used in ECPInt.
 ECPInt:  NShTT=    4465 NPrTT=   13356 LenC2=    4422 LenP2D=   10943.
 LDataN:  DoStor=T MaxTD1= 6 Len=  172
 GSVD:  received Info=                   1 from GESDD.
 NBasis=   228 RedAO= T EigKep=  1.64D-04  NBF=   228
 NBsUse=   228 1.00D-06 EigRej= -1.00D+00 NBFU=   228
 Precomputing XC quadrature grid using
 IXCGrd= 4 IRadAn=           5 IRanWt=          -1 IRanGd=           0 AccXCQ= 0.00D+00.
 Generated NRdTot=       0 NPtTot=           0 NUsed=           0 NTot=          32
 NSgBfM=   257   257   257   257   257 MxSgAt=    13 MxSgA2=    13.
 Leave Link  302 at Tue Feb 13 18:38:38 2024, MaxMem=  6442450944 cpu:               3.7 elap:               0.4
 (Enter /usr/local/g16_bin/l303.exe)
 DipDrv:  MaxL=1.
 Leave Link  303 at Tue Feb 13 18:38:38 2024, MaxMem=  6442450944 cpu:               0.4 elap:               0.1
 (Enter /usr/local/g16_bin/l401.exe)
 Initial guess from the checkpoint file:  "/scratch/16209.qtcovimaster/Gau-165823.chk"
 B after Tr=    -0.000000    0.000000    0.000000
         Rot=    0.999941   -0.010160    0.001998    0.003299 Ang=  -1.25 deg.
 Guess basis will be translated and rotated to current coordinates.
 JPrj=2 DoOrth=T DoCkMO=T.
 Generating alternative initial guess.
 ExpMin= 9.52D-02 ExpMax= 2.70D+04 ExpMxC= 9.22D+02 IAcc=3 IRadAn=         5 AccDes= 0.00D+00
 Harris functional with IExCor= 1009 and IRadAn=       5 diagonalized for initial guess.
 HarFok:  IExCor= 1009 AccDes= 0.00D+00 IRadAn=         5 IDoV= 1 UseB2=F ITyADJ=14
 ICtDFT=  3500011 ScaDFX=  1.000000  1.000000  1.000000  1.000000
 FoFCou: FMM=F IPFlag=           0 FMFlag=      100000 FMFlg1=           0
         NFxFlg=           0 DoJE=T BraDBF=F KetDBF=T FulRan=T
         wScrn=  0.000000 ICntrl=       500 IOpCl=  0 I1Cent=   200000004 NGrid=           0
         NMat0=    1 NMatS0=      1 NMatT0=    0 NMatD0=    1 NMtDS0=    0 NMtDT0=    0
 Petite list used in FoFCou.
 Harris En= -323.620635043508    
 Leave Link  401 at Tue Feb 13 18:38:39 2024, MaxMem=  6442450944 cpu:              11.2 elap:               0.8
 (Enter /usr/local/g16_bin/l502.exe)
 Integral symmetry usage will be decided dynamically.
 Closed shell SCF:
 Using DIIS extrapolation, IDIIS=  1040.
 NGot=  6442450944 LenX=  6442310950 LenY=  6442243945
 Requested convergence on RMS density matrix=1.00D-08 within 128 cycles.
 Requested convergence on MAX density matrix=1.00D-06.
 Requested convergence on             energy=1.00D-06.
 No special actions if energy rises.
 Fock matrices will be formed incrementally for  20 cycles.
 Integral accuracy reduced to 1.0D-05 until final iterations.

 Cycle   1  Pass 0  IDiag  1:
 FoFJK:  IHMeth= 1 ICntrl=       0 DoSepK=F KAlg= 0 I1Cent=           0 FoldK=F
 IRaf= 980000000 NMat=       1 IRICut=       1 DoRegI=T DoRafI=F ISym2E= 0 IDoP0=0 IntGTp=1.
 FoFCou: FMM=F IPFlag=           0 FMFlag=      100000 FMFlg1=           0
         NFxFlg=           0 DoJE=F BraDBF=F KetDBF=F FulRan=T
         wScrn=  0.000000 ICntrl=         0 IOpCl=  0 I1Cent=           0 NGrid=           0
         NMat0=    1 NMatS0=      1 NMatT0=    0 NMatD0=    1 NMtDS0=    0 NMtDT0=    0
 Symmetry not used in FoFCou.
 E= -323.736390644533    
 DIIS: error= 2.62D-03 at cycle   1 NSaved=   1.
 NSaved= 1 IEnMin= 1 EnMin= -323.736390644533     IErMin= 1 ErrMin= 2.62D-03
 ErrMax= 2.62D-03  0.00D+00 EMaxC= 1.00D-01 BMatC= 3.95D-03 BMatP= 3.95D-03
 IDIUse=3 WtCom= 9.74D-01 WtEn= 2.62D-02
 Coeff-Com:  0.100D+01
 Coeff-En:   0.100D+01
 Coeff:      0.100D+01
 Gap=     0.771 Goal=   None    Shift=    0.000
 DSYEVD-2 returned Info=       39616 IAlg= 4 N=   228 NDim=   228 NE2=    28255454 trying  DSYEV.
 GapD=    0.771 DampG=2.000 DampE=1.000 DampFc=2.0000 IDamp=-1.
 RMSDP=4.85D-04 MaxDP=2.44D-02              OVMax= 1.47D-02

 Cycle   2  Pass 0  IDiag  1:
 RMSU=  4.82D-04    CP:  9.95D-01
 E= -323.741041917090     Delta-E=       -0.004651272557 Rises=F Damp=F
 DIIS: error= 5.82D-04 at cycle   2 NSaved=   2.
 NSaved= 2 IEnMin= 2 EnMin= -323.741041917090     IErMin= 2 ErrMin= 5.82D-04
 ErrMax= 5.82D-04  0.00D+00 EMaxC= 1.00D-01 BMatC= 2.13D-04 BMatP= 3.95D-03
 IDIUse=3 WtCom= 9.94D-01 WtEn= 5.82D-03
 Coeff-Com: -0.189D-01 0.102D+01
 Coeff-En:   0.000D+00 0.100D+01
 Coeff:     -0.188D-01 0.102D+01
 Gap=     0.358 Goal=   None    Shift=    0.000
 DSYEVD-2 returned Info=       46028 IAlg= 4 N=   228 NDim=   228 NE2=    28255454 trying  DSYEV.
 RMSDP=9.21D-05 MaxDP=1.92D-03 DE=-4.65D-03 OVMax= 6.71D-03

 Cycle   3  Pass 0  IDiag  1:
 RMSU=  8.32D-05    CP:  9.95D-01  1.08D+00
 E= -323.741276588567     Delta-E=       -0.000234671477 Rises=F Damp=F
 DIIS: error= 5.55D-04 at cycle   3 NSaved=   3.
 NSaved= 3 IEnMin= 3 EnMin= -323.741276588567     IErMin= 3 ErrMin= 5.55D-04
 ErrMax= 5.55D-04  0.00D+00 EMaxC= 1.00D-01 BMatC= 1.09D-04 BMatP= 2.13D-04
 IDIUse=3 WtCom= 9.94D-01 WtEn= 5.55D-03
 Coeff-Com: -0.617D-01 0.429D+00 0.633D+00
 Coeff-En:   0.000D+00 0.000D+00 0.100D+01
 Coeff:     -0.614D-01 0.427D+00 0.635D+00
 Gap=     0.357 Goal=   None    Shift=    0.000
 DSYEVD-2 returned Info=       46028 IAlg= 4 N=   228 NDim=   228 NE2=    28255454 trying  DSYEV.
 RMSDP=3.70D-05 MaxDP=1.41D-03 DE=-2.35D-04 OVMax= 2.42D-03

 Cycle   4  Pass 0  IDiag  1:
 RMSU=  2.69D-05    CP:  9.94D-01  1.12D+00  8.12D-01
 E= -323.741359986295     Delta-E=       -0.000083397728 Rises=F Damp=F
 DIIS: error= 1.13D-04 at cycle   4 NSaved=   4.
 NSaved= 4 IEnMin= 4 EnMin= -323.741359986295     IErMin= 4 ErrMin= 1.13D-04
 ErrMax= 1.13D-04  0.00D+00 EMaxC= 1.00D-01 BMatC= 5.44D-06 BMatP= 1.09D-04
 IDIUse=3 WtCom= 9.99D-01 WtEn= 1.13D-03
 Coeff-Com: -0.163D-01 0.448D-01 0.184D+00 0.788D+00
 Coeff-En:   0.000D+00 0.000D+00 0.000D+00 0.100D+01
 Coeff:     -0.163D-01 0.447D-01 0.183D+00 0.788D+00
 Gap=     0.356 Goal=   None    Shift=    0.000
 DSYEVD-2 returned Info=       46028 IAlg= 4 N=   228 NDim=   228 NE2=    28255454 trying  DSYEV.
 RMSDP=1.18D-05 MaxDP=3.23D-04 DE=-8.34D-05 OVMax= 1.21D-03

 Cycle   5  Pass 0  IDiag  1:
 RMSU=  9.92D-06    CP:  9.94D-01  1.13D+00  8.78D-01  1.11D+00
 E= -323.741365692461     Delta-E=       -0.000005706166 Rises=F Damp=F
 DIIS: error= 4.67D-05 at cycle   5 NSaved=   5.
 NSaved= 5 IEnMin= 5 EnMin= -323.741365692461     IErMin= 5 ErrMin= 4.67D-05
 ErrMax= 4.67D-05  0.00D+00 EMaxC= 1.00D-01 BMatC= 1.49D-06 BMatP= 5.44D-06
 IDIUse=1 WtCom= 1.00D+00 WtEn= 0.00D+00
 Coeff-Com:  0.274D-02-0.487D-01-0.203D-01 0.367D+00 0.699D+00
 Coeff:      0.274D-02-0.487D-01-0.203D-01 0.367D+00 0.699D+00
 Gap=     0.356 Goal=   None    Shift=    0.000
 DSYEVD-2 returned Info=       46028 IAlg= 4 N=   228 NDim=   228 NE2=    28255454 trying  DSYEV.
 RMSDP=6.58D-06 MaxDP=2.22D-04 DE=-5.71D-06 OVMax= 7.38D-04

 Initial convergence to 1.0D-05 achieved.  Increase integral accuracy.
 Cycle   6  Pass 1  IDiag  1:
 E= -323.741361608409     Delta-E=        0.000004084051 Rises=F Damp=F
 DIIS: error= 2.16D-05 at cycle   1 NSaved=   1.
 NSaved= 1 IEnMin= 1 EnMin= -323.741361608409     IErMin= 1 ErrMin= 2.16D-05
 ErrMax= 2.16D-05  0.00D+00 EMaxC= 1.00D-01 BMatC= 2.59D-07 BMatP= 2.59D-07
 IDIUse=1 WtCom= 1.00D+00 WtEn= 0.00D+00
 Coeff-Com:  0.100D+01
 Coeff:      0.100D+01
 Gap=     0.356 Goal=   None    Shift=    0.000
 DSYEVD-2 returned Info=       46028 IAlg= 4 N=   228 NDim=   228 NE2=    28255454 trying  DSYEV.
 RMSDP=6.58D-06 MaxDP=2.22D-04 DE= 4.08D-06 OVMax= 3.70D-04

 Cycle   7  Pass 1  IDiag  1:
 RMSU=  6.70D-06    CP:  1.00D+00
 E= -323.741361813972     Delta-E=       -0.000000205562 Rises=F Damp=F
 DIIS: error= 1.64D-05 at cycle   2 NSaved=   2.
 NSaved= 2 IEnMin= 2 EnMin= -323.741361813972     IErMin= 2 ErrMin= 1.64D-05
 ErrMax= 1.64D-05  0.00D+00 EMaxC= 1.00D-01 BMatC= 1.93D-07 BMatP= 2.59D-07
 IDIUse=1 WtCom= 1.00D+00 WtEn= 0.00D+00
 Coeff-Com:  0.448D+00 0.552D+00
 Coeff:      0.448D+00 0.552D+00
 Gap=     0.356 Goal=   None    Shift=    0.000
 DSYEVD-2 returned Info=       46028 IAlg= 4 N=   228 NDim=   228 NE2=    28255454 trying  DSYEV.
 RMSDP=2.12D-06 MaxDP=8.90D-05 DE=-2.06D-07 OVMax= 1.67D-04

 Cycle   8  Pass 1  IDiag  1:
 RMSU=  2.11D-06    CP:  1.00D+00  9.98D-01
 E= -323.741361944437     Delta-E=       -0.000000130465 Rises=F Damp=F
 DIIS: error= 7.77D-06 at cycle   3 NSaved=   3.
 NSaved= 3 IEnMin= 3 EnMin= -323.741361944437     IErMin= 3 ErrMin= 7.77D-06
 ErrMax= 7.77D-06  0.00D+00 EMaxC= 1.00D-01 BMatC= 3.77D-08 BMatP= 1.93D-07
 IDIUse=1 WtCom= 1.00D+00 WtEn= 0.00D+00
 Coeff-Com: -0.588D-01 0.283D+00 0.776D+00
 Coeff:     -0.588D-01 0.283D+00 0.776D+00
 Gap=     0.356 Goal=   None    Shift=    0.000
 DSYEVD-2 returned Info=       46028 IAlg= 4 N=   228 NDim=   228 NE2=    28255454 trying  DSYEV.
 RMSDP=8.57D-07 MaxDP=2.20D-05 DE=-1.30D-07 OVMax= 1.20D-04

 Cycle   9  Pass 1  IDiag  1:
 RMSU=  6.99D-07    CP:  1.00D+00  1.07D+00  9.30D-01
 E= -323.741361989106     Delta-E=       -0.000000044670 Rises=F Damp=F
 DIIS: error= 1.69D-06 at cycle   4 NSaved=   4.
 NSaved= 4 IEnMin= 4 EnMin= -323.741361989106     IErMin= 4 ErrMin= 1.69D-06
 ErrMax= 1.69D-06  0.00D+00 EMaxC= 1.00D-01 BMatC= 1.66D-09 BMatP= 3.77D-08
 IDIUse=1 WtCom= 1.00D+00 WtEn= 0.00D+00
 Coeff-Com: -0.377D-01-0.204D-01 0.723D-01 0.986D+00
 Coeff:     -0.377D-01-0.204D-01 0.723D-01 0.986D+00
 Gap=     0.356 Goal=   None    Shift=    0.000
 DSYEVD-2 returned Info=       46028 IAlg= 4 N=   228 NDim=   228 NE2=    28255454 trying  DSYEV.
 RMSDP=4.18D-07 MaxDP=1.19D-05 DE=-4.47D-08 OVMax= 6.63D-05

 Cycle  10  Pass 1  IDiag  1:
 RMSU=  2.23D-07    CP:  1.00D+00  1.09D+00  1.00D+00  1.40D+00
 E= -323.741361994914     Delta-E=       -0.000000005807 Rises=F Damp=F
 DIIS: error= 9.26D-07 at cycle   5 NSaved=   5.
 NSaved= 5 IEnMin= 5 EnMin= -323.741361994914     IErMin= 5 ErrMin= 9.26D-07
 ErrMax= 9.26D-07  0.00D+00 EMaxC= 1.00D-01 BMatC= 4.81D-10 BMatP= 1.66D-09
 IDIUse=1 WtCom= 1.00D+00 WtEn= 0.00D+00
 Coeff-Com:  0.380D-02-0.855D-01-0.186D+00 0.340D+00 0.928D+00
 Coeff:      0.380D-02-0.855D-01-0.186D+00 0.340D+00 0.928D+00
 Gap=     0.356 Goal=   None    Shift=    0.000
 DSYEVD-2 returned Info=       46028 IAlg= 4 N=   228 NDim=   228 NE2=    28255454 trying  DSYEV.
 RMSDP=2.30D-07 MaxDP=7.31D-06 DE=-5.81D-09 OVMax= 3.87D-05

 Cycle  11  Pass 1  IDiag  1:
 RMSU=  8.27D-08    CP:  1.00D+00  1.10D+00  1.05D+00  1.66D+00  1.11D+00
 E= -323.741361996225     Delta-E=       -0.000000001311 Rises=F Damp=F
 DIIS: error= 2.11D-07 at cycle   6 NSaved=   6.
 NSaved= 6 IEnMin= 6 EnMin= -323.741361996225     IErMin= 6 ErrMin= 2.11D-07
 ErrMax= 2.11D-07  0.00D+00 EMaxC= 1.00D-01 BMatC= 2.58D-11 BMatP= 4.81D-10
 IDIUse=1 WtCom= 1.00D+00 WtEn= 0.00D+00
 Coeff-Com:  0.359D-02-0.288D-01-0.708D-01 0.622D-01 0.319D+00 0.715D+00
 Coeff:      0.359D-02-0.288D-01-0.708D-01 0.622D-01 0.319D+00 0.715D+00
 Gap=     0.356 Goal=   None    Shift=    0.000
 DSYEVD-2 returned Info=       46028 IAlg= 4 N=   228 NDim=   228 NE2=    28255454 trying  DSYEV.
 RMSDP=3.58D-08 MaxDP=1.32D-06 DE=-1.31D-09 OVMax= 4.40D-06

 Cycle  12  Pass 1  IDiag  1:
 RMSU=  2.53D-08    CP:  1.00D+00  1.10D+00  1.05D+00  1.69D+00  1.11D+00
                    CP:  1.13D+00
 E= -323.741361996255     Delta-E=       -0.000000000030 Rises=F Damp=F
 DIIS: error= 8.66D-08 at cycle   7 NSaved=   7.
 NSaved= 7 IEnMin= 7 EnMin= -323.741361996255     IErMin= 7 ErrMin= 8.66D-08
 ErrMax= 8.66D-08  0.00D+00 EMaxC= 1.00D-01 BMatC= 2.71D-12 BMatP= 2.58D-11
 IDIUse=1 WtCom= 1.00D+00 WtEn= 0.00D+00
 Coeff-Com:  0.808D-03-0.222D-02-0.835D-02-0.784D-02 0.296D-01 0.254D+00
 Coeff-Com:  0.734D+00
 Coeff:      0.808D-03-0.222D-02-0.835D-02-0.784D-02 0.296D-01 0.254D+00
 Coeff:      0.734D+00
 Gap=     0.356 Goal=   None    Shift=    0.000
 DSYEVD-2 returned Info=       46028 IAlg= 4 N=   228 NDim=   228 NE2=    28255454 trying  DSYEV.
 RMSDP=9.73D-09 MaxDP=2.51D-07 DE=-3.02D-11 OVMax= 7.99D-07

 SCF Done:  E(RM062X) =  -323.741361996     A.U. after   12 cycles
            NFock= 12  Conv=0.97D-08     -V/T= 2.0044
 KE= 3.223227476873D+02 PE=-1.258473366532D+03 EE= 3.623040564263D+02
 Leave Link  502 at Tue Feb 13 18:38:53 2024, MaxMem=  6442450944 cpu:             227.6 elap:              14.5
 (Enter /usr/local/g16_bin/l701.exe)
 ... and contract with generalized density number  0.
 Compute integral first derivatives.
   1 Symmetry operations used in ECPInt.
 ECPInt:  NShTT=    4465 NPrTT=   13356 LenC2=    4422 LenP2D=   10943.
 LDataN:  DoStor=T MaxTD1= 7 Len=  274
 Leave Link  701 at Tue Feb 13 18:38:54 2024, MaxMem=  6442450944 cpu:               2.9 elap:               0.3
 (Enter /usr/local/g16_bin/l702.exe)
 L702 exits ... SP integral derivatives will be done elsewhere.
 Leave Link  702 at Tue Feb 13 18:38:54 2024, MaxMem=  6442450944 cpu:               0.3 elap:               0.1
 (Enter /usr/local/g16_bin/l703.exe)
 Integral derivatives from FoFJK, PRISM(SPDF).
 Compute integral first derivatives, UseDBF=F ICtDFT=           0.
 Calling FoFJK, ICntrl=      2127 FMM=F ISym2X=0 I1Cent= 0 IOpClX= 0 NMat=1 NMatS=1 NMatT=0.
 FoFJK:  IHMeth= 1 ICntrl=    2127 DoSepK=F KAlg= 0 I1Cent=           0 FoldK=F
 IRaf=         0 NMat=       1 IRICut=       1 DoRegI=T DoRafI=F ISym2E= 0 IDoP0=0 IntGTp=1.
 FoFCou: FMM=F IPFlag=           0 FMFlag=      100000 FMFlg1=         800
         NFxFlg=           0 DoJE=F BraDBF=F KetDBF=F FulRan=T
         wScrn=  0.000000 ICntrl=      2127 IOpCl=  0 I1Cent=           0 NGrid=           0
         NMat0=    1 NMatS0=      1 NMatT0=    0 NMatD0=    1 NMtDS0=    0 NMtDT0=    0
 Symmetry not used in FoFCou.
 Leave Link  703 at Tue Feb 13 18:38:59 2024, MaxMem=  6442450944 cpu:              74.2 elap:               4.8
 (Enter /usr/local/g16_bin/l716.exe)
 Dipole        =-5.21902967D-01-2.13219676D-01-1.37572985D-01
 ***** Axes restored to original set *****
 -------------------------------------------------------------------
 Center     Atomic                   Forces (Hartrees/Bohr)
 Number     Number              X              Y              Z
 -------------------------------------------------------------------
      1        8          -0.000264988    0.000981639   -0.000169211
      2        8          -0.000538709    0.000817011   -0.002182634
      3        7           0.000948365   -0.004689583   -0.000923028
      4        6          -0.003872766    0.000563284   -0.003580101
      5        6          -0.000931500   -0.000266948   -0.000126577
      6        6           0.002956617   -0.002042816    0.005070724
      7        1           0.000535816    0.000534816    0.001433843
      8        1           0.000610310    0.002568620    0.000696781
      9        1          -0.000355582    0.000347179    0.000047025
     10        1          -0.000335707    0.000080009   -0.000481485
     11        1          -0.000069879    0.000309075    0.000758401
     12        1          -0.000154440    0.000439700   -0.000326773
     13        1           0.001472463    0.000358015   -0.000216965
 -------------------------------------------------------------------
 Cartesian Forces:  Max     0.005070724 RMS     0.001696680
 Leave Link  716 at Tue Feb 13 18:38:59 2024, MaxMem=  6442450944 cpu:               0.3 elap:               0.1
 (Enter /usr/local/g16_bin/l103.exe)

 GradGradGradGradGradGradGradGradGradGradGradGradGradGradGradGradGradGrad
 Berny optimization.
 Using GEDIIS/GDIIS optimizer.
 FormGI is forming the generalized inverse of G from B-inverse, IUseBI=4.
 GSVD:  received Info=                   1 from GESDD.
 Internal  Forces:  Max     0.003732248 RMS     0.001146589
 Search for a local minimum.
 Step number   2 out of a maximum of   64
 All quantities printed in internal units (Hartrees-Bohrs-Radians)
 RMS Force = .11466D-02 SwitMx=.10000D-02 MixMth= 1
 Mixed Optimization -- RFO/linear search
 Update second derivatives using D2CorX and points    1    2
 DE= -4.36D-03 DEPred=-4.90D-03 R= 8.89D-01
 TightC=F SS=  1.41D+00  RLast= 2.74D-01 DXNew= 5.0454D-01 8.2253D-01
 Trust test= 8.89D-01 RLast= 2.74D-01 DXMaxT set to 5.05D-01
 ITU=  1  0
 Use linear search instead of GDIIS.
 DSYEVD-2 returned Info=          67 IAlg= 4 N=    33 NDim=    33 NE2=   195179051 trying  DSYEV.
     Eigenvalues ---    0.00466   0.00584   0.00876   0.01022   0.02233
     Eigenvalues ---    0.04311   0.04543   0.05059   0.05506   0.05791
     Eigenvalues ---    0.06955   0.15582   0.16000   0.16000   0.16000
     Eigenvalues ---    0.16000   0.16512   0.18401   0.19167   0.24503
     Eigenvalues ---    0.24992   0.30169   0.30943   0.34040   0.34139
     Eigenvalues ---    0.34198   0.34362   0.37237   0.44372   0.44432
     Eigenvalues ---    0.51486   0.53451   0.93127
 RFO step:  Lambda=-7.97250606D-04 EMin= 4.66415654D-03
 Quartic linear search produced a step of -0.04650.
 Iteration  1 RMS(Cart)=  0.02176247 RMS(Int)=  0.00130316
 Iteration  2 RMS(Cart)=  0.00139022 RMS(Int)=  0.00066544
 Iteration  3 RMS(Cart)=  0.00000163 RMS(Int)=  0.00066544
 Iteration  4 RMS(Cart)=  0.00000000 RMS(Int)=  0.00066544
 ITry= 1 IFail=0 DXMaxC= 8.82D-02 DCOld= 1.00D+10 DXMaxT= 5.05D-01 DXLimC= 3.00D+00 Rises=F
 Variable       Old X    -DE/DX   Delta X   Delta X   Delta X     New X
                                 (Linear)    (Quad)   (Total)
    R1        2.53080   0.00119   0.00174  -0.00264  -0.00090   2.52990
    R2        1.82650   0.00150   0.00127  -0.00071   0.00056   1.82706
    R3        2.26646   0.00085   0.00205  -0.00474  -0.00270   2.26377
    R4        2.77351  -0.00373  -0.00054  -0.00816  -0.00871   2.76480
    R5        1.91434   0.00024   0.00058  -0.00107  -0.00049   1.91384
    R6        1.91780   0.00043   0.00044  -0.00029   0.00015   1.91794
    R7        2.88020  -0.00177  -0.00013  -0.00522  -0.00535   2.87485
    R8        2.86567   0.00298  -0.00023   0.00977   0.00954   2.87521
    R9        2.06248   0.00125   0.00032   0.00261   0.00293   2.06540
   R10        2.06435  -0.00180   0.00028  -0.00578  -0.00551   2.05885
   R11        2.06035   0.00031   0.00047  -0.00043   0.00004   2.06039
   R12        2.05964   0.00045   0.00055  -0.00025   0.00030   2.05994
    A1        1.86652   0.00058   0.00399  -0.00762  -0.00363   1.86289
    A2        1.90794   0.00026   0.00014   0.00320   0.00332   1.91126
    A3        1.90911   0.00070   0.00040   0.00506   0.00544   1.91456
    A4        1.85826  -0.00003  -0.00057   0.00572   0.00511   1.86336
    A5        2.01350  -0.00186  -0.00457   0.00487   0.00026   2.01375
    A6        1.88773   0.00087  -0.00005   0.00622   0.00620   1.89393
    A7        1.86656   0.00029   0.00141  -0.00566  -0.00424   1.86232
    A8        1.92056   0.00115   0.00063   0.00616   0.00686   1.92742
    A9        1.91592   0.00072   0.00103   0.00188   0.00295   1.91887
   A10        1.85211  -0.00117   0.00185  -0.01558  -0.01368   1.83843
   A11        1.96475  -0.00294  -0.00129  -0.01491  -0.01622   1.94853
   A12        1.91301   0.00010   0.00127  -0.00221  -0.00094   1.91207
   A13        1.91991   0.00078   0.00131   0.00128   0.00259   1.92250
   A14        1.88906   0.00139  -0.00065   0.00944   0.00876   1.89783
   A15        1.87554   0.00093  -0.00017   0.00454   0.00435   1.87989
   A16        1.90013  -0.00018  -0.00055   0.00255   0.00203   1.90216
   A17        2.14079  -0.00027   0.00046  -0.00058  -0.00295   2.13784
   A18        1.95657   0.00182  -0.00140   0.01240   0.00819   1.96476
   A19        2.18506  -0.00149   0.00097  -0.00681  -0.00864   2.17643
    D1        0.02281  -0.00071  -0.00127  -0.06310  -0.06452  -0.04172
    D2        3.12441   0.00081   0.00105   0.06791   0.06911  -3.08966
    D3        1.05240   0.00016  -0.00015   0.02433   0.02423   1.07663
    D4       -3.07210   0.00103  -0.00236   0.04079   0.03842  -3.03368
    D5       -1.08392   0.00024   0.00050   0.02296   0.02346  -1.06046
    D6       -0.97602  -0.00035   0.00023   0.01281   0.01306  -0.96296
    D7        1.18267   0.00052  -0.00198   0.02927   0.02725   1.20992
    D8       -3.11234  -0.00027   0.00088   0.01144   0.01230  -3.10004
    D9       -3.09057   0.00022   0.00008  -0.01489  -0.01482  -3.10539
   D10       -0.98713   0.00012  -0.00073  -0.01427  -0.01499  -1.00212
   D11        1.10155   0.00043   0.00027  -0.01173  -0.01148   1.09007
   D12        1.05131  -0.00048   0.00283  -0.03167  -0.02883   1.02248
   D13       -3.12843  -0.00058   0.00202  -0.03105  -0.02900   3.12575
   D14       -1.03976  -0.00026   0.00302  -0.02850  -0.02549  -1.06525
   D15       -0.98084  -0.00015  -0.00049  -0.01745  -0.01794  -0.99878
   D16        1.12260  -0.00025  -0.00130  -0.01683  -0.01811   1.10449
   D17       -3.07191   0.00006  -0.00030  -0.01429  -0.01460  -3.08651
   D18        1.04496  -0.00012  -0.00060  -0.02335  -0.02387   1.02110
   D19       -2.13783   0.00149   0.00179   0.11180   0.11342  -2.02441
   D20       -3.02451  -0.00107  -0.00592  -0.00862  -0.01435  -3.03887
   D21        0.07588   0.00053  -0.00353   0.12653   0.12293   0.19881
   D22       -0.95277  -0.00028  -0.00318  -0.01207  -0.01513  -0.96790
   D23        2.14763   0.00132  -0.00078   0.12308   0.12215   2.26978
         Item               Value     Threshold  Converged?
 Maximum Force            0.003732     0.000450     NO 
 RMS     Force            0.001147     0.000300     NO 
 Maximum Displacement     0.088209     0.001800     NO 
 RMS     Displacement     0.021952     0.001200     NO 
 Predicted change in Energy=-4.333055D-04
 Lowest energy point so far.  Saving SCF results.
 GradGradGradGradGradGradGradGradGradGradGradGradGradGradGradGradGradGrad

 Leave Link  103 at Tue Feb 13 18:38:59 2024, MaxMem=  6442450944 cpu:               1.0 elap:               0.1
 (Enter /usr/local/g16_bin/l202.exe)
                          Input orientation:                          
 ---------------------------------------------------------------------
 Center     Atomic      Atomic             Coordinates (Angstroms)
 Number     Number       Type             X           Y           Z
 ---------------------------------------------------------------------
      1          8           0        1.304522    1.019208    0.842017
      2          8           0        1.323313   -0.425801   -0.849670
      3          7           0       -1.422139    1.194146    0.174522
      4          6           0       -0.744169   -0.090485    0.349616
      5          6           0       -1.306820   -1.241804   -0.470298
      6          6           0        0.735819    0.099816    0.052340
      7          1           0       -0.796506   -0.330722    1.414566
      8          1           0       -0.781684   -2.174415   -0.266655
      9          1           0       -2.362867   -1.375801   -0.234519
[...]
 ! R8    R(4,6)                  1.5117         -DE/DX =    0.0                 !
 ! R9    R(4,7)                  1.0924         -DE/DX =    0.0                 !
 ! R10   R(5,8)                  1.0902         -DE/DX =    0.0                 !
 ! R11   R(5,9)                  1.0904         -DE/DX =    0.0                 !
 ! R12   R(5,10)                 1.0914         -DE/DX =    0.0                 !
 ! A1    A(6,1,13)             107.2997         -DE/DX =    0.0                 !
 ! A2    A(4,3,11)             110.814          -DE/DX =    0.0                 !
 ! A3    A(4,3,12)             109.6807         -DE/DX =    0.0                 !
 ! A4    A(11,3,12)            108.6162         -DE/DX =    0.0                 !
 ! A5    A(3,4,5)              114.934          -DE/DX =    0.0                 !
 ! A6    A(3,4,6)              108.1972         -DE/DX =    0.0                 !
 ! A7    A(3,4,7)              109.6017         -DE/DX =    0.0                 !
 ! A8    A(5,4,6)              107.7529         -DE/DX =    0.0                 !
 ! A9    A(5,4,7)              108.7561         -DE/DX =    0.0                 !
 ! A10   A(6,4,7)              107.3256         -DE/DX =    0.0                 !
 ! A11   A(4,5,8)              111.4501         -DE/DX =    0.0                 !
 ! A12   A(4,5,9)              109.4148         -DE/DX =    0.0                 !
 ! A13   A(4,5,10)             109.9606         -DE/DX =    0.0                 !
 ! A14   A(8,5,9)              108.3847         -DE/DX =    0.0                 !
 ! A15   A(8,5,10)             109.0924         -DE/DX =    0.0                 !
 ! A16   A(9,5,10)             108.4745         -DE/DX =    0.0                 !
 ! A17   A(1,6,2)              122.8723         -DE/DX =    0.0                 !
 ! A18   A(1,6,4)              112.087          -DE/DX =    0.0                 !
 ! A19   A(2,6,4)              124.9751         -DE/DX =    0.0                 !
 ! D1    D(13,1,6,2)            -0.63           -DE/DX =    0.0                 !
 ! D2    D(13,1,6,4)           176.5584         -DE/DX =    0.0                 !
 ! D3    D(11,3,4,5)            39.1132         -DE/DX =    0.0                 !
 ! D4    D(11,3,4,6)           159.5629         -DE/DX =    0.0                 !
 ! D5    D(11,3,4,7)           -83.7043         -DE/DX =    0.0                 !
 ! D6    D(12,3,4,5)           -80.7988         -DE/DX =    0.0                 !
 ! D7    D(12,3,4,6)            39.651          -DE/DX =    0.0                 !
 ! D8    D(12,3,4,7)           156.3837         -DE/DX =    0.0                 !
 ! D9    D(3,4,5,8)           -179.442          -DE/DX =    0.0                 !
 ! D10   D(3,4,5,9)            -59.5891         -DE/DX =    0.0                 !
 ! D11   D(3,4,5,10)            59.4539         -DE/DX =    0.0                 !
 ! D12   D(6,4,5,8)             59.8642         -DE/DX =    0.0                 !
 ! D13   D(6,4,5,9)            179.7171         -DE/DX =    0.0                 !
 ! D14   D(6,4,5,10)           -61.2399         -DE/DX =    0.0                 !
 ! D15   D(7,4,5,8)            -56.1724         -DE/DX =    0.0                 !
 ! D16   D(7,4,5,9)             63.6805         -DE/DX =    0.0                 !
 ! D17   D(7,4,5,10)          -177.2765         -DE/DX =    0.0                 !
 ! D18   D(3,4,6,1)            157.2466         -DE/DX =    0.0                 !
 ! D19   D(3,4,6,2)            -25.6352         -DE/DX =    0.0                 !
 ! D20   D(5,4,6,1)            -77.9193         -DE/DX =    0.0                 !
 ! D21   D(5,4,6,2)             99.1988         -DE/DX =    0.0                 !
 ! D22   D(7,4,6,1)             39.0516         -DE/DX =    0.0                 !
 ! D23   D(7,4,6,2)           -143.8302         -DE/DX =    0.0                 !
 --------------------------------------------------------------------------------
 GradGradGradGradGradGradGradGradGradGradGradGradGradGradGradGradGradGrad

 Leave Link  103 at Tue Feb 13 18:47:48 2024, MaxMem=  6442450944 cpu:               1.2 elap:               0.2
 (Enter /usr/local/g16_bin/l9999.exe)

 ----------------------------------------------------------------------

 Electric dipole moment (input orientation):
 (Debye = 10**-18 statcoulomb cm , SI units = C m)
                  (au)            (Debye)         (10**-30 SI)
   Tot        0.857414D+00      0.217933D+01      0.726946D+01
   x         -0.146057D+00     -0.371240D+00     -0.123832D+01
   y         -0.839119D+00     -0.213283D+01     -0.711435D+01
   z          0.985101D-01      0.250388D+00      0.835204D+00

 Dipole polarizability, Alpha (input orientation).
 (esu units = cm**3 , SI units = C**2 m**2 J**-1)
 Alpha(0;0):
               (au)            (10**-24 esu)      (10**-40 SI)
   iso        0.500071D+02      0.741029D+01      0.824506D+01
   aniso      0.120353D+02      0.178345D+01      0.198436D+01
   xx         0.549241D+02      0.813892D+01      0.905576D+01
   yx         0.613634D+00      0.909312D-01      0.101175D+00
   yy         0.496251D+02      0.735369D+01      0.818208D+01
   zx         0.104701D+01      0.155151D+00      0.172629D+00
   zy        -0.493619D+01     -0.731467D+00     -0.813867D+00
   zz         0.454721D+02      0.673827D+01      0.749734D+01

 ----------------------------------------------------------------------

 Dipole orientation:
     8          3.03863895          0.99914817         -0.00634556
     8          1.06705305         -1.60079675         -2.68355090
     7         -3.47476862          0.63525661         -1.68784503
     6         -1.43805525          0.96825328          0.11536079
     6         -1.80898745         -0.40054710          2.64548457
     6          0.96867831         -0.01956338         -1.06475256
     1         -1.16124962          2.98057149          0.48366403
     1         -0.22846086         -0.06340072          3.92327907
     1         -3.53116078          0.28231417          3.54764438
     1         -1.99823690         -2.42955946          2.32719412
     1         -5.17219165          0.66336131         -0.80834471
     1         -3.27662272         -1.04858826         -2.58173060
     1          4.49311621          0.20494401         -0.78171699

 Electric dipole moment (dipole orientation):
 (Debye = 10**-18 statcoulomb cm , SI units = C m)
                  (au)            (Debye)         (10**-30 SI)
   Tot        0.857414D+00      0.217933D+01      0.726946D+01
   x          0.000000D+00      0.000000D+00      0.000000D+00
   y          0.000000D+00      0.000000D+00      0.000000D+00
   z          0.857414D+00      0.217933D+01      0.726946D+01

 Dipole polarizability, Alpha (dipole orientation).
 (esu units = cm**3 , SI units = C**2 m**2 J**-1)
 Alpha(0;0):
               (au)            (10**-24 esu)      (10**-40 SI)
   iso        0.500071D+02      0.741029D+01      0.824506D+01
   aniso      0.120353D+02      0.178345D+01      0.198436D+01
   xx         0.549515D+02      0.814297D+01      0.906028D+01
   yx         0.209055D+00      0.309787D-01      0.344685D-01
   yy         0.440721D+02      0.653081D+01      0.726651D+01
   zx        -0.535224D+00     -0.793120D-01     -0.882465D-01
   zy         0.419841D+01      0.622140D+00      0.692225D+00
   zz         0.509978D+02      0.755709D+01      0.840839D+01

 ----------------------------------------------------------------------
 Unable to Open any file for archive entry.
 1\1\GINC-QTCOVI02\Freq\RM062X\def2TZVP\C3H7N1O2\ALEJANDRO\13-Feb-2024\
 0\\#P Geom=AllCheck Guess=TCheck SCRF=Check GenChk RM062X/def2TZVP Fre
 q\\5950 alanine\\0,1\O,1.4876377176,-0.1626491316,0.7909721913\O,0.918
 5363554,1.1859661995,-0.895998594\N,-1.6890291102,1.1964376137,-0.0868
 543677\C,-0.8281951086,0.1262516261,0.3788279345\C,-1.1391373587,-1.25
 67870434,-0.2096648228\C,0.5967890373,0.4733117621,0.0124530167\H,-0.8
 77960398,0.0636706554,1.4683244644\H,-0.4663899659,-2.0184627877,0.185
 100268\H,-2.1621100264,-1.5368081149,0.0435872296\H,-1.047432586,-1.22
 82801186,-1.2968737305\H,-2.6453927824,0.8773669703,-0.1718383999\H,-1
 .3730858115,1.5181229749,-0.9953798937\H,2.3700200375,0.0645893942,0.4
 63634704\\Version=ES64L-G16RevC.01\State=1-A\HF=-323.7457043\RMSD=1.37
 4e-09\RMSF=2.282e-05\ZeroPoint=0.108946\Thermal=0.115742\ETot=-323.629
 9623\HTot=-323.6290181\GTot=-323.6672676\Dipole=-0.146057,-0.8391193,0
 .0985101\DipoleDeriv=-0.9570333,0.315119,-0.4868468,0.2467822,-0.54186
 39,0.2423434,-0.3248585,0.2252543,-0.6571732,-0.7553241,-0.2064586,0.1
 746809,-0.0231511,-0.6840187,0.3717155,0.0292488,0.4415935,-0.8202047,
 -0.4236002,0.1955176,-0.0475486,0.1523475,-0.7267629,-0.0327705,-0.001
 2228,-0.070572,-0.3851525,0.090093,-0.259754,0.0845466,-0.26632,0.4055
 286,0.0385195,0.1399358,-0.0557956,0.2230519,-0.0159801,-0.0213764,0.0
 053623,0.0917422,-0.0639001,-0.0366184,0.0181963,-0.0151244,0.054326,1
 .4350871,0.0302904,0.2163221,-0.1061903,0.8247494,-0.6885935,0.1827144
 ,-0.743819,1.1048243,0.0284201,-0.0017545,-0.0140817,0.0287892,0.00586
 88,0.0018372,-0.0250962,0.0285979,-0.0920575,0.0162867,0.0927407,-0.04
 16026,0.0632101,-0.0493239,0.0139721,-0.0419501,0.043582,0.0441008,-0.
 1088167,-0.0645014,0.0343475,-0.0403069,0.0267568,-0.0049894,0.0373824
 ,-0.0086094,0.0567557,0.0655864,-0.010331,0.0239248,-0.0118245,0.03933
 74,0.0448239,0.0002887,-0.0218393,-0.0964115,0.090354,-0.0575356,-0.03
 30963,-0.1225948,0.1945138,0.0390013,-0.0779009,0.0771924,0.2041222,0.
 2008315,0.0169465,0.0380009,0.02988,0.2695034,-0.0358328,-0.0051619,0.
 0476596,0.0916171,0.3340957,-0.0289028,0.0459908,-0.0423636,0.2996113,
 0.0465917,0.0684239,0.0518799,0.2722016\Polar=54.9241214,0.6136341,49.
 6251426,1.0470136,-4.9361862,45.4721302\Quadrupole=4.9318858,-3.280810
 8,-1.651075,0.3969666,1.928043,0.4565786\PG=C01 [X(C3H7N1O2)]\NImag=0\
 \0.64908357,0.01965980,0.18677150,-0.04503968,-0.18816675,0.28213793,0
 .03064689,0.02749425,-0.03436537,0.16319006,0.02172156,-0.02244795,0.0
 6572311,0.11865459,0.34729769,-0.02860933,0.06624326,-0.05324341,-0.15
 243459,-0.39711726,0.53534116,-0.00921150,-0.00071784,0.00056851,-0.00
 161134,0.00305384,-0.00425573,0.66929780,-0.00328952,0.00067365,-0.000
 90344,-0.00259593,0.00195379,-0.00021175,0.05994631,0.33167410,0.00223
 607,-0.00025808,0.00185062,0.00193678,-0.00019502,0.00091860,-0.035240
 91,-0.20500302,0.48763016,-0.03212053,-0.00075977,-0.00048427,-0.00605
 625,-0.00980643,0.01113949,-0.14441611,0.04989862,-0.03039306,0.523255
 59,0.01875037,0.01001495,0.00198825,-0.02183338,-0.00135981,0.02630587
 ,0.07525844,-0.15636019,0.07527414,-0.01738065,0.45615888,-0.02257844,
 0.00292612,0.00673682,0.03164617,0.02826327,-0.00690417,-0.00536506,0.
 03699038,-0.09994334,-0.00072862,-0.05400153,0.61920473,-0.00282044,0.
 00200432,0.00046611,-0.00304546,0.00212941,0.00476621,0.00087474,0.028
 85596,0.00507888,-0.08576728,-0.03439701,-0.01566086,0.58110118,0.0024
 7461,-0.00198676,0.00089305,0.00194206,0.00300338,-0.00235948,0.004103
 15,-0.03639561,-0.00613852,-0.01660802,-0.14743635,-0.03768523,-0.0235
 2251,0.48326926,0.00052817,-0.00009251,0.00049009,0.00257595,0.0002248
 3,-0.00398004,0.00150313,0.01398691,0.00670483,-0.01067803,-0.03875332
 ,-0.09795013,-0.00538898,-0.04754417,0.56255388,-0.22069196,0.04398435
 ,-0.05144875,-0.18340034,-0.12402901,0.15989350,-0.03286485,0.00267388
 ,-0.00208168,-0.18512047,-0.01541291,0.02649956,-0.00515633,-0.0196319
 4,-0.00325801,0.67150139,0.05667311,-0.11900494,0.06438749,-0.11344458
 ,-0.32297623,0.30749610,0.02861186,0.00117080,-0.00392981,-0.02183062,
 -0.07946968,-0.00390556,-0.03435001,-0.01565138,0.00554349,0.07908850,
 0.53594636,-0.06870016,0.06485000,-0.14649942,0.14323270,0.30888346,-0
 .47269050,-0.01028103,-0.00002386,0.00003994,0.02847680,-0.00629797,-0
 .08760012,-0.01619581,-0.00142216,0.00519856,-0.10465859,-0.36695995,0
 .70500836,-0.00118135,-0.00062681,-0.00197751,-0.00675220,-0.00482563,
 0.00058164,0.00187464,0.00980463,-0.02325574,-0.05339703,-0.00154416,0
 .01942653,0.00213726,-0.00133236,-0.00977876,0.00208410,0.00081145,0.0
 3482186,0.05768653,0.00106343,-0.00000425,-0.00055467,-0.00200757,-0.0
 0047083,-0.00006962,0.00051721,-0.00934905,0.02762335,-0.00094750,-0.0
 4316515,0.00850287,0.00245869,-0.00190612,-0.03214205,-0.00193300,-0.0
 0154480,0.01014524,-0.00222444,0.06105211,-0.00142916,-0.00035962,0.00
 167020,0.00170006,-0.00054634,0.00101482,-0.00308405,0.00836549,-0.006
 61623,0.02040248,0.01100754,-0.30826089,0.00172700,-0.00233666,-0.0130
 7282,-0.00026798,0.00175320,-0.01139420,-0.01620045,-0.01583135,0.3350
 8232,-0.00061638,-0.00035596,-0.00012695,0.00000619,0.00003026,-0.0002
 4643,0.00087620,-0.00192333,-0.00054402,0.00393752,-0.00508152,0.00401
 203,-0.15266722,0.11815143,-0.06226486,0.00052026,-0.00024293,0.000726
 36,0.00028409,0.00053119,0.00012928,0.16211573,-0.00048260,0.00129535,
 -0.00042212,-0.00068012,0.00040879,-0.00057819,-0.00011725,-0.00785552
 ,-0.00264194,0.01773255,-0.01540212,0.01352793,0.11599817,-0.17784336,
 0.06788710,0.00264058,-0.00176926,0.00183958,0.00009346,0.00092494,-0.
 00039281,-0.12799345,0.19335644,0.00018359,-0.00057265,-0.00015964,0.0
 0012361,-0.00001847,0.00005414,-0.00041496,-0.00293407,0.00126821,0.00
 977057,-0.00705969,0.00457660,-0.06247809,0.06944631,-0.08570055,-0.00
 038068,0.00071375,0.00024543,0.00035044,0.00067391,0.00008909,0.068229
 25,-0.07487708,0.08685859,-0.00034512,-0.00038787,0.00008527,-0.000053
 05,-0.00031330,0.00039188,0.00208326,0.00051420,-0.00014744,-0.0073627
 8,-0.00071713,0.00126107,-0.28657171,-0.06287553,0.06148123,0.00134270
 ,0.00006599,-0.00171938,0.00029331,-0.00012686,-0.00040030,-0.01702332
 ,-0.00547668,0.00513378,0.30860793,-0.00121148,0.00125734,-0.00005862,
 -0.00170173,0.00008372,0.00193275,-0.00056181,0.00346171,-0.00023812,-
 0.03071726,-0.01285647,0.00572712,-0.06173774,-0.06065382,0.01749232,0
 .00373817,-0.00567434,-0.00373279,0.00089137,0.00152157,0.00042989,0.0
 2123290,0.00660487,-0.00672692,0.06969176,0.06812838,-0.00074463,0.000
 08677,0.00008185,-0.00101488,-0.00015959,0.00180052,-0.00021080,0.0013
 6389,-0.00050382,-0.01480926,-0.00565168,0.00224955,0.06227654,0.01706
 454,-0.06223647,0.00150774,-0.00226358,-0.00224330,-0.00026327,0.00091
 289,0.00062442,-0.01144716,-0.00392398,0.00233741,-0.06641504,-0.01560
 637,0.06369388,-0.00025134,-0.00000500,0.00037477,0.00005062,0.0001799
 4,0.00058975,-0.00028032,0.00024230,0.00048255,-0.00078016,0.00003049,
 -0.00868886,-0.05022566,-0.00053144,0.02434940,0.00065581,0.00044998,-
 0.00241446,0.00042006,-0.00166445,-0.00059304,0.00224202,-0.00083458,-
 0.02028015,-0.00135330,-0.00052335,0.03066246,0.04941579,-0.00012762,-
 0.00008303,0.00030179,0.00018032,-0.00016465,0.00104350,-0.00050465,0.
 00354456,0.00122627,0.00115375,-0.00139278,-0.03217154,0.00016322,-0.0
 4698219,0.01222738,0.00168036,0.00185761,-0.00233152,-0.00172965,-0.00
 541234,-0.00221322,-0.00401371,-0.00006991,0.02205217,0.00015961,-0.00
 128450,0.00778001,0.00266092,0.05066367,-0.00048835,-0.00015151,0.0002
 0896,-0.00072693,-0.00055463,0.00119214,0.00043374,0.00057958,0.002743
 98,-0.00090595,0.00052181,-0.01443363,0.02416890,0.01037351,-0.3139392
 0,0.00154858,0.00089042,-0.00148683,-0.00094421,-0.00242098,0.00071747
 ,0.00156478,-0.00018997,-0.00915596,-0.00007748,0.00025175,-0.00609534
 ,-0.02507211,-0.00817641,0.34051718,-0.00137311,-0.00004086,0.00029420
 ,0.00027955,0.00021656,-0.00024637,-0.38927353,-0.10853383,-0.02177947
 ,-0.02119961,-0.00898019,-0.00251298,0.00278553,-0.00222725,0.00103054
 ,-0.00051050,0.00247141,-0.00232222,-0.00056357,0.00029128,-0.00007594
 ,0.00036487,-0.00089343,-0.00028214,0.00029870,0.00110084,0.00032738,-
 0.00015798,0.00049573,0.00018610,0.41940626,0.00196740,0.00053861,-0.0
 0047414,-0.00050738,0.00135292,-0.00053965,-0.14689416,-0.07860288,0.0
 1691394,0.03362620,0.00419593,0.00006869,0.00144580,0.00261015,-0.0003
 3279,0.00198845,-0.00572780,0.00347171,-0.00044256,0.00026160,0.000277
 76,-0.00039837,0.00028373,0.00010361,-0.00073186,-0.00070514,0.0004571
 8,-0.00001645,-0.00010575,-0.00029557,0.12040349,0.08187781,-0.0010389
 7,-0.00017740,0.00051568,0.00107196,-0.00112279,0.00090204,-0.05641295
 ,0.00773913,-0.04309250,-0.01062927,-0.00719270,-0.00145203,-0.0000817
 2,0.00034984,0.00053900,0.00134602,0.00246370,-0.00259503,-0.00054333,
 0.00033498,-0.00062304,-0.00005985,0.00030702,-0.00019695,0.00027535,0
 .00030988,0.00033727,0.00041673,-0.00001155,-0.00015487,0.03065982,-0.
 01332673,0.04184420,0.00146326,-0.00191457,0.00259606,-0.00045337,-0.0
 0256985,0.00296811,-0.09645151,-0.03474783,0.10360079,0.00849379,0.007
 03136,-0.02369875,-0.00094040,0.00015916,-0.00012846,-0.00089895,0.005
 77616,-0.00753873,-0.00357002,0.00397726,-0.00206671,0.00005289,0.0003
 0974,0.00006814,-0.00009446,-0.00015973,0.00005611,0.00033254,-0.00007
 614,0.00033000,-0.00999139,-0.01088765,0.03527521,0.10246831,-0.000494
 03,-0.00006518,0.00022019,-0.00165048,-0.00162451,-0.00100515,-0.02303
 728,-0.05366374,0.09727772,-0.00605716,-0.01489291,0.02817176,0.000230
 38,-0.00014693,0.00168927,0.00081949,0.00183041,0.00087167,0.00126123,
 -0.00154458,-0.00051823,0.00015346,-0.00008817,-0.00094782,0.00012578,
 -0.00003177,-0.00005619,0.00013805,-0.00060449,-0.00073161,-0.00444408
 ,-0.00596788,0.01024930,0.03292721,0.07673559,0.00009310,-0.00003225,0
 .00016226,0.00196136,-0.00204903,0.00026020,0.11388290,0.14055935,-0.3
 5144533,0.00040411,-0.00072734,-0.01535813,0.00075483,-0.00077402,0.00
 150229,0.00101541,0.00194833,-0.00128469,-0.00210922,0.00300646,0.0003
 0456,0.00010388,-0.00052296,-0.00024390,0.00009214,0.00008896,-0.00001
 533,0.00026932,0.00033259,-0.00003191,-0.00509375,-0.00668079,0.003987
 92,-0.11136918,-0.13517679,0.36206773,-0.41258198,-0.08833403,0.129057
 61,0.00719871,-0.00444195,0.00546186,-0.00089748,-0.00084546,0.0001072
 6,0.00053332,0.00427629,-0.00361180,0.00029580,-0.00010136,0.00002867,
 -0.04746087,-0.00408032,0.00657267,0.00068417,0.00006477,0.00015880,-0
 .00009286,-0.00029637,-0.00002335,0.00017784,-0.00004195,0.00007481,-0
 .00006807,-0.00004213,-0.00001708,-0.00006521,0.00044710,-0.00027901,-
 0.00041069,0.00002743,-0.00000492,0.45268733,-0.11670502,-0.05695927,0
 .05706586,-0.00385005,-0.00505631,-0.00114035,0.00034218,-0.00025162,0
 .00008910,0.00169629,0.00196570,0.00358572,0.00072134,0.00011975,-0.00
 018644,0.02439307,0.01101325,-0.00929341,-0.00013652,-0.00036308,0.000
 36438,-0.00008996,0.00015422,0.00014695,0.00007190,0.00014844,-0.00000
 389,-0.00012640,0.00003380,-0.00009640,0.00014032,-0.00001129,0.000077
 32,0.00017488,0.00006417,0.00002750,0.09336799,0.04914224,0.16558778,0
 .05570463,-0.09395196,0.00429318,-0.00133153,-0.00466550,-0.00112281,-
 0.00050859,0.00044488,-0.00156501,0.00458663,-0.00086524,0.00056701,0.
 00013300,-0.00010945,-0.02971514,-0.00813758,0.01530182,-0.00010796,-0
 .00018101,0.00046430,-0.00007632,-0.00001258,0.00002754,0.00003892,0.0
 0013016,-0.00003063,-0.00009636,-0.00005945,-0.00008197,-0.00018518,0.
 00035677,-0.00001169,-0.00009258,-0.00004411,0.00009432,-0.13752553,-0
 .05063633,0.08338358\\0.00002956,-0.00000804,0.00001911,0.00000585,-0.
 00001663,0.00003631,-0.00001586,0.00001823,0.00002470,0.00001716,-0.00
 007688,-0.00001602,-0.00000641,0.00004636,0.00002732,-0.00001279,0.000
 04042,-0.00006318,0.00000612,0.00000118,0.00000646,-0.00000089,0.00000
 403,-0.00000518,-0.00000366,-0.00000384,0.00000124,-0.00000212,-0.0000
 1205,-0.00000274,-0.00000987,0.00000467,-0.00001410,-0.00000723,0.0000
 0341,-0.00001710,0.00000014,-0.00000086,0.00000317\\\@
 The archive entry for this job was punched.


 CURIOUSER AND CURIOUSER

                  -- ALICE, IN WONDERLAND
 Job cpu time:       0 days  0 hours 28 minutes 21.3 seconds.
 Elapsed time:       0 days  0 hours  1 minutes 50.9 seconds.
 File lengths (MBytes):  RWF=     68 Int=      0 D2E=      0 Chk=      5 Scr=      1
 Normal termination of Gaussian 16 at Tue Feb 13 18:47:48 2024.
