 Entering Gaussian System, Link 0=/usr/local/g16_bin/g16.exe
 Input=alanine_conf1.com
 Output=alanine_conf1.log
 Initial command:
 /usr/local/g16_bin/l1.exe "/scratch/16209.qtcovimaster/Gau-157701.inp" -scrdir="/scratch/16209.qtcovimaster/"
 Default is to use a total of   8 processors:
                                8 via shared-memory
                                1 via Linda
 Entering Link 1 = /usr/local/g16_bin/l1.exe PID=    157702.
  
 Copyright (c) 1988-2019, Gaussian, Inc.  All Rights Reserved.
  
 This is part of the Gaussian(R) 16 program.  It is based on
 the Gaussian(R) 09 system (copyright 2009, Gaussian, Inc.),
 the Gaussian(R) 03 system (copyright 2003, Gaussian, Inc.),
 the Gaussian(R) 98 system (copyright 1998, Gaussian, Inc.),
 the Gaussian(R) 94 system (copyright 1995, Gaussian, Inc.),
 the Gaussian 92(TM) system (copyright 1992, Gaussian, Inc.),
 the Gaussian 90(TM) system (copyright 1990, Gaussian, Inc.),
 the Gaussian 88(TM) system (copyright 1988, Gaussian, Inc.),
 the Gaussian 86(TM) system (copyright 1986, Carnegie Mellon
 University), and the Gaussian 82(TM) system (copyright 1983,
 Carnegie Mellon University). Gaussian is a federally registered
 trademark of Gaussian, Inc.
  
 This software contains proprietary and confidential information,
 including trade secrets, belonging to Gaussian, Inc.
  
 This software is provided under written license and may be
 used, copied, transmitted, or stored only in accord with that
 written license.
  
 The following legend is applicable only to US Government
 contracts under FAR:
  
                    RESTRICTED RIGHTS LEGEND
  
 Use, reproduction and disclosure by the US Government is
 subject to restrictions as set forth in subparagraphs (a)
 and (c) of the Commercial Computer Software - Restricted
 Rights clause in FAR 52.227-19.
  
 Gaussian, Inc.
 340 Quinnipiac St., Bldg. 40, Wallingford CT 06492
  
  
 ---------------------------------------------------------------
 Warning -- This program may not be used in any manner that
 competes with the business of Gaussian, Inc. or will provide
 assistance to any competitor of Gaussian, Inc.  The licensee
 of this program is prohibited from giving any competitor of
 Gaussian, Inc. access to this program.  By using this program,
 the user acknowledges that Gaussian, Inc. is engaged in the
 business of creating and licensing software in the field of
 computational chemistry and represents and warrants to the
 licensee that it is not a competitor of Gaussian, Inc. and that
 it will not use this program in any manner prohibited above.
 ---------------------------------------------------------------
  

 Cite this work as:
 Gaussian 16, Revision C.01,
 M. J. Frisch, G. W. Trucks, H. B. Schlegel, G. E. Scuseria, 
 M. A. Robb, J. R. Cheeseman, G. Scalmani, V. Barone, 
 G. A. Petersson, H. Nakatsuji, X. Li, M. Caricato, A. V. Marenich, 
 J. Bloino, B. G. Janesko, R. Gomperts, B. Mennucci, H. P. Hratchian, 
 J. V. Ortiz, A. F. Izmaylov, J. L. Sonnenberg, D. Williams-Young, 
 F. Ding, F. Lipparini, F. Egidi, J. Goings, B. Peng, A. Petrone, 
 T. Henderson, D. Ranasinghe, V. G. Zakrzewski, J. Gao, N. Rega, 
 G. Zheng, W. Liang, M. Hada, M. Ehara, K. Toyota, R. Fukuda, 
 J. Hasegawa, M. Ishida, T. Nakajima, Y. Honda, O. Kitao, H. Nakai, 
 T. Vreven, K. Throssell, J. A. Montgomery, Jr., J. E. Peralta, 
 F. Ogliaro, M. J. Bearpark, J. J. Heyd, E. N. Brothers, K. N. Kudin, 
 V. N. Staroverov, T. A. Keith, R. Kobayashi, J. Normand, 
 K. Raghavachari, A. P. Rendell, J. C. Burant, S. S. Iyengar, 
 J. Tomasi, M. Cossi, J. M. Millam, M. Klene, C. Adamo, R. Cammi, 
 J. W. Ochterski, R. L. Martin, K. Morokuma, O. Farkas, 
 J. B. Foresman, and D. J. Fox, Gaussian, Inc., Wallingford CT, 2019.
 
 ******************************************
 Gaussian 16:  ES64L-G16RevC.01  3-Jul-2019
                13-Feb-2024 
 ******************************************
 %mem=48GB
 %nproc=16
 Will use up to   16 processors via shared memory.
 Default route: Maxdisk=400Gb
 --------------------------
 #p m062X def2TZVP opt freq
 --------------------------
 1/18=20,19=15,26=3,38=1/1,3;
 2/9=110,12=2,17=6,18=5,40=1/2;
 3/5=44,7=101,11=2,25=1,30=1,71=1,74=-55/1,2,3;
 4//1;
 5/5=2,38=5/2;
 6/7=2,8=2,9=2,10=2,28=1/1;
 7//1,2,3,16;
 1/18=20,19=15,26=3/3(2);
 2/9=110/2;
 99//99;
 2/9=110/2;
 3/5=44,7=101,11=2,25=1,30=1,71=1,74=-55/1,2,3;
 4/5=5,16=3,69=1/1;
 5/5=2,38=5/2;
 7//1,2,3,16;
 1/18=20,19=15,26=3/3(-5);
 2/9=110/2;
 6/7=2,8=2,9=2,10=2,19=2,28=1/1;
 99/9=1/99;
 Leave Link    1 at Tue Feb 13 18:20:16 2024, MaxMem=  6442450944 cpu:               1.0 elap:               0.1
 (Enter /usr/local/g16_bin/l101.exe)
 ------------
 5950 alanine
 ------------
 Symbolic Z-matrix:
 Charge =  0 Multiplicity = 1
 O                     1.54053  -0.13993   1.10986 
 O                     1.18228   0.42487  -1.06169 
 N                    -1.4105    1.1507    0.1821 
 C                    -0.7085   -0.1136    0.3937 
 C                    -1.3345   -1.2      -0.4702 
 C                     0.747     0.0903    0.0308 
 H                    -0.7666   -0.3737    1.4558 
 H                    -0.858    -2.1695   -0.2878 
 H                    -2.4023   -1.3127   -0.2521 
 H                    -1.2248   -0.9797   -1.5384 
 H                    -2.3916    1.042     0.4376 
 H                    -1.4071    1.3875   -0.8099 
 H                     2.48982  -0.00898   0.89986 
 
 ITRead=  0  0  0  0  0  0  0  0  0  0  0  0  0
 MicOpt= -1 -1 -1 -1 -1 -1 -1 -1 -1 -1 -1 -1 -1
 NAtoms=     13 NQM=       13 NQMF=       0 NMMI=      0 NMMIF=      0
                NMic=       0 NMicF=      0.
                    Isotopes and Nuclear Properties:
 (Nuclear quadrupole moments (NQMom) in fm**2, nuclear magnetic moments (NMagM)
  in nuclear magnetons)

  Atom         1           2           3           4           5           6           7           8           9          10
 IAtWgt=          16          16          14          12          12          12           1           1           1           1
 AtmWgt=  15.9949146  15.9949146  14.0030740  12.0000000  12.0000000  12.0000000   1.0078250   1.0078250   1.0078250   1.0078250
 NucSpn=           0           0           2           0           0           0           1           1           1           1
 AtZEff=   0.0000000   0.0000000   0.0000000   0.0000000   0.0000000   0.0000000   0.0000000   0.0000000   0.0000000   0.0000000
 NQMom=    0.0000000   0.0000000   2.0440000   0.0000000   0.0000000   0.0000000   0.0000000   0.0000000   0.0000000   0.0000000
 NMagM=    0.0000000   0.0000000   0.4037610   0.0000000   0.0000000   0.0000000   2.7928460   2.7928460   2.7928460   2.7928460
 AtZNuc=   8.0000000   8.0000000   7.0000000   6.0000000   6.0000000   6.0000000   1.0000000   1.0000000   1.0000000   1.0000000

  Atom        11          12          13
 IAtWgt=           1           1           1
 AtmWgt=   1.0078250   1.0078250   1.0078250
 NucSpn=           1           1           1
 AtZEff=   0.0000000   0.0000000   0.0000000
 NQMom=    0.0000000   0.0000000   0.0000000
 NMagM=    2.7928460   2.7928460   2.7928460
 AtZNuc=   1.0000000   1.0000000   1.0000000
 Leave Link  101 at Tue Feb 13 18:20:17 2024, MaxMem=  6442450944 cpu:               2.8 elap:               0.5
 (Enter /usr/local/g16_bin/l103.exe)

 GradGradGradGradGradGradGradGradGradGradGradGradGradGradGradGradGradGrad
 Berny optimization.
 Initialization pass.
                           ----------------------------
                           !    Initial Parameters    !
                           ! (Angstroms and Degrees)  !
 --------------------------                            --------------------------
 ! Name  Definition              Value          Derivative Info.                !
 --------------------------------------------------------------------------------
 ! R1    R(1,6)                  1.3591         estimate D2E/DX2                !
 ! R2    R(1,13)                 0.981          estimate D2E/DX2                !
 ! R3    R(2,6)                  1.2227         estimate D2E/DX2                !
 ! R4    R(3,4)                  1.4615         estimate D2E/DX2                !
 ! R5    R(3,11)                 1.0196         estimate D2E/DX2                !
 ! R6    R(3,12)                 1.0199         estimate D2E/DX2                !
 ! R7    R(4,5)                  1.5227         estimate D2E/DX2                !
 ! R8    R(4,6)                  1.5139         estimate D2E/DX2                !
 ! R9    R(4,7)                  1.095          estimate D2E/DX2                !
 ! R10   R(5,8)                  1.0956         estimate D2E/DX2                !
 ! R11   R(5,9)                  1.0957         estimate D2E/DX2                !
 ! R12   R(5,10)                 1.0962         estimate D2E/DX2                !
 ! A1    A(6,1,13)             111.865          estimate D2E/DX2                !
 ! A2    A(4,3,11)             109.4917         estimate D2E/DX2                !
 ! A3    A(4,3,12)             109.8815         estimate D2E/DX2                !
 ! A4    A(11,3,12)            105.7649         estimate D2E/DX2                !
 ! A5    A(3,4,5)              109.7306         estimate D2E/DX2                !
 ! A6    A(3,4,6)              108.0946         estimate D2E/DX2                !
 ! A7    A(3,4,7)              108.6883         estimate D2E/DX2                !
 ! A8    A(5,4,6)              110.8161         estimate D2E/DX2                !
 ! A9    A(5,4,7)              111.0399         estimate D2E/DX2                !
 ! A10   A(6,4,7)              108.392          estimate D2E/DX2                !
 ! A11   A(4,5,8)              110.9848         estimate D2E/DX2                !
 ! A12   A(4,5,9)              111.1692         estimate D2E/DX2                !
 ! A13   A(4,5,10)             111.6138         estimate D2E/DX2                !
 ! A14   A(8,5,9)              107.4403         estimate D2E/DX2                !
 ! A15   A(8,5,10)             107.2511         estimate D2E/DX2                !
 ! A16   A(9,5,10)             108.1906         estimate D2E/DX2                !
 ! A17   A(1,6,2)              123.2245         estimate D2E/DX2                !
 ! A18   A(1,6,4)              110.3788         estimate D2E/DX2                !
 ! A19   A(2,6,4)              126.3939         estimate D2E/DX2                !
 ! D1    D(13,1,6,2)            -0.2586         estimate D2E/DX2                !
 ! D2    D(13,1,6,4)          -179.6907         estimate D2E/DX2                !
 ! D3    D(11,3,4,5)            60.1152         estimate D2E/DX2                !
 ! D4    D(11,3,4,6)          -178.9298         estimate D2E/DX2                !
 ! D5    D(11,3,4,7)           -61.4826         estimate D2E/DX2                !
 ! D6    D(12,3,4,5)           -55.6367         estimate D2E/DX2                !
 ! D7    D(12,3,4,6)            65.3183         estimate D2E/DX2                !
 ! D8    D(12,3,4,7)          -177.2346         estimate D2E/DX2                !
 ! D9    D(3,4,5,8)           -176.9764         estimate D2E/DX2                !
 ! D10   D(3,4,5,9)            -57.4537         estimate D2E/DX2                !
 ! D11   D(3,4,5,10)            63.445          estimate D2E/DX2                !
 ! D12   D(6,4,5,8)             63.7254         estimate D2E/DX2                !
 ! D13   D(6,4,5,9)           -176.7519         estimate D2E/DX2                !
 ! D14   D(6,4,5,10)           -55.8532         estimate D2E/DX2                !
 ! D15   D(7,4,5,8)            -56.7989         estimate D2E/DX2                !
 ! D16   D(7,4,5,9)             62.7238         estimate D2E/DX2                !
 ! D17   D(7,4,5,10)          -176.3775         estimate D2E/DX2                !
 ! D18   D(3,4,6,1)            119.1325         estimate D2E/DX2                !
 ! D19   D(3,4,6,2)            -60.2773         estimate D2E/DX2                !
 ! D20   D(5,4,6,1)           -120.5901         estimate D2E/DX2                !
 ! D21   D(5,4,6,2)             60.0001         estimate D2E/DX2                !
 ! D22   D(7,4,6,1)              1.4948         estimate D2E/DX2                !
 ! D23   D(7,4,6,2)           -177.915          estimate D2E/DX2                !
 --------------------------------------------------------------------------------
 Trust Radius=3.00D-01 FncErr=1.00D-07 GrdErr=1.00D-06 EigMax=2.50D+02 EigMin=1.00D-04
 Number of steps in this run=     64 maximum allowed number of steps=    100.
 GradGradGradGradGradGradGradGradGradGradGradGradGradGradGradGradGradGrad

 Leave Link  103 at Tue Feb 13 18:20:17 2024, MaxMem=  6442450944 cpu:               0.2 elap:               0.1
 (Enter /usr/local/g16_bin/l202.exe)
                          Input orientation:                          
 ---------------------------------------------------------------------
 Center     Atomic      Atomic             Coordinates (Angstroms)
 Number     Number       Type             X           Y           Z
 ---------------------------------------------------------------------
      1          8           0        1.540530   -0.139930    1.109860
      2          8           0        1.182280    0.424870   -1.061690
      3          7           0       -1.410500    1.150700    0.182100
      4          6           0       -0.708500   -0.113600    0.393700
      5          6           0       -1.334500   -1.200000   -0.470200
      6          6           0        0.747000    0.090300    0.030800
      7          1           0       -0.766600   -0.373700    1.455800
      8          1           0       -0.858000   -2.169500   -0.287800
      9          1           0       -2.402300   -1.312700   -0.252100
     10          1           0       -1.224800   -0.979700   -1.538400
     11          1           0       -2.391600    1.042000    0.437600
     12          1           0       -1.407100    1.387500   -0.809900
     13          1           0        2.489820   -0.008980    0.899860
 ---------------------------------------------------------------------
                    Distance matrix (angstroms):
                    1          2          3          4          5
     1  O    0.000000
     2  O    2.272217   0.000000
     3  N    3.351871   2.965864   0.000000
     4  C    2.360448   2.446050   1.461517   0.000000
     5  C    3.447628   3.053563   2.440709   1.522650   0.000000
     6  C    1.359068   1.222677   2.408764   1.513853   2.499703
     7  H    2.344605   3.282317   2.088232   1.095027   2.171349
     8  H    3.438830   3.390045   3.398498   2.171064   1.095560
     9  H    4.333155   4.064948   2.690824   2.173444   1.095658
    10  H    3.919891   2.827385   2.744669   2.179382   1.096183
    11  H    4.160594   3.924454   1.019634   2.042098   2.639721
    12  H    3.834976   2.773976   1.019877   2.046948   2.610713
    13  H    0.981020   2.396991   4.131892   3.239814   4.233322
                    6          7          8          9         10
     6  C    0.000000
     7  H    2.130001   0.000000
     8  H    2.790023   2.504674   0.000000
     9  H    3.459268   2.544437   1.766421   0.000000
    10  H    2.737752   3.089080   1.764700   1.775377   0.000000
    11  H    3.304849   2.383603   3.632061   2.453653   3.058311
    12  H    2.651349   2.940317   3.636805   2.931321   2.483462
    13  H    1.950011   3.323607   4.157677   5.192257   4.548166
                   11         12         13
    11  H    0.000000
    12  H    1.626305   0.000000
    13  H    5.014629   4.478775   0.000000
 Stoichiometry    C3H7NO2
 Framework group  C1[X(C3H7NO2)]
 Deg. of freedom    33
 Full point group                 C1      NOp   1
 Largest Abelian subgroup         C1      NOp   1
 Largest concise Abelian subgroup C1      NOp   1
                         Standard orientation:                         
 ---------------------------------------------------------------------
 Center     Atomic      Atomic             Coordinates (Angstroms)
 Number     Number       Type             X           Y           Z
 ---------------------------------------------------------------------
      1          8           0        1.714157    0.149107   -0.875768
      2          8           0        1.091916   -0.171428    1.285955
      3          7           0       -1.246990   -1.258209   -0.178551
      4          6           0       -0.606618    0.024322   -0.463280
      5          6           0       -1.417736    1.153100    0.158340
      6          6           0        0.793595   -0.011501    0.111064
      7          1           0       -0.531718    0.145727   -1.548976
      8          1           0       -0.984914    2.128956   -0.087877
      9          1           0       -2.449327    1.148840   -0.210806
     10          1           0       -1.445129    1.076097    1.251472
     11          1           0       -2.187409   -1.263825   -0.572548
     12          1           0       -1.367599   -1.369766    0.828007
     13          1           0        2.631007    0.124465   -0.527663
 ---------------------------------------------------------------------
 Rotational constants (GHZ):           5.2104360           2.6033024           2.5763810
 Leave Link  202 at Tue Feb 13 18:20:17 2024, MaxMem=  6442450944 cpu:               0.3 elap:               0.1
 (Enter /usr/local/g16_bin/l301.exe)
 Standard basis: def2TZVP (5D, 7F)
 Ernie: Thresh=  0.10000D-02 Tol=  0.10000D-05 Strict=F.
 There are   258 symmetry adapted cartesian basis functions of A   symmetry.
 There are   228 symmetry adapted basis functions of A   symmetry.
   228 basis functions,   362 primitive gaussians,   258 cartesian basis functions
    24 alpha electrons       24 beta electrons
       nuclear repulsion energy       248.2189230774 Hartrees.
 IExCor= 4336 DFT=T Ex+Corr=M062X ExCW=0 ScaHFX=  0.540000
 ScaDFX=  1.000000  1.000000  1.000000  1.000000 ScalE2=  1.000000  1.000000
 IRadAn=      5 IRanWt=     -1 IRanGd=            0 ICorTp=0 IEmpDi=  4
 NAtoms=   13 NActive=   13 NUniq=   13 SFac= 1.00D+00 NAtFMM=   60 NAOKFM=F Big=F
 Integral buffers will be    131072 words long.
 Raffenetti 2 integral format.
 Two-electron integral symmetry is turned on.
 Leave Link  301 at Tue Feb 13 18:20:17 2024, MaxMem=  6442450944 cpu:               1.0 elap:               0.2
 (Enter /usr/local/g16_bin/l302.exe)
 NPDir=0 NMtPBC=     1 NCelOv=     1 NCel=       1 NClECP=     1 NCelD=      1
         NCelK=      1 NCelE2=     1 NClLst=     1 CellRange=     0.0.
 One-electron integrals computed using PRISM.
 One-electron integral symmetry used in STVInt
   1 Symmetry operations used in ECPInt.
 ECPInt:  NShTT=    4465 NPrTT=   13356 LenC2=    4420 LenP2D=   10933.
 LDataN:  DoStor=T MaxTD1= 6 Len=  172
 GSVD:  received Info=                   1 from GESDD.
 NBasis=   228 RedAO= T EigKep=  2.26D-04  NBF=   228
 NBsUse=   228 1.00D-06 EigRej= -1.00D+00 NBFU=   228
 Precomputing XC quadrature grid using
 IXCGrd= 4 IRadAn=           5 IRanWt=          -1 IRanGd=           0 AccXCQ= 0.00D+00.
 Generated NRdTot=       0 NPtTot=           0 NUsed=           0 NTot=          32
 NSgBfM=   257   257   257   257   257 MxSgAt=    13 MxSgA2=    13.
 Leave Link  302 at Tue Feb 13 18:20:18 2024, MaxMem=  6442450944 cpu:               4.5 elap:               0.4
 (Enter /usr/local/g16_bin/l303.exe)
 DipDrv:  MaxL=1.
 Leave Link  303 at Tue Feb 13 18:20:18 2024, MaxMem=  6442450944 cpu:               0.8 elap:               0.2
 (Enter /usr/local/g16_bin/l401.exe)
 ExpMin= 9.52D-02 ExpMax= 2.70D+04 ExpMxC= 9.22D+02 IAcc=3 IRadAn=         5 AccDes= 0.00D+00
 Harris functional with IExCor= 1009 and IRadAn=       5 diagonalized for initial guess.
 HarFok:  IExCor= 1009 AccDes= 0.00D+00 IRadAn=         5 IDoV= 1 UseB2=F ITyADJ=14
 ICtDFT=  3500011 ScaDFX=  1.000000  1.000000  1.000000  1.000000
 FoFCou: FMM=F IPFlag=           0 FMFlag=      100000 FMFlg1=           0
         NFxFlg=           0 DoJE=T BraDBF=F KetDBF=T FulRan=T
         wScrn=  0.000000 ICntrl=       500 IOpCl=  0 I1Cent=   200000004 NGrid=           0
         NMat0=    1 NMatS0=      1 NMatT0=    0 NMatD0=    1 NMtDS0=    0 NMtDT0=    0
 Petite list used in FoFCou.
 Harris En= -323.614782889465    
 JPrj=0 DoOrth=F DoCkMO=F.
 Leave Link  401 at Tue Feb 13 18:20:19 2024, MaxMem=  6442450944 cpu:              11.8 elap:               0.9
 (Enter /usr/local/g16_bin/l502.exe)
 Integral symmetry usage will be decided dynamically.
 Closed shell SCF:
 Using DIIS extrapolation, IDIIS=  1040.
 NGot=  6442450944 LenX=  6442310950 LenY=  6442243945
 Requested convergence on RMS density matrix=1.00D-08 within 128 cycles.
 Requested convergence on MAX density matrix=1.00D-06.
 Requested convergence on             energy=1.00D-06.
 No special actions if energy rises.
 Fock matrices will be formed incrementally for  20 cycles.
 Integral accuracy reduced to 1.0D-05 until final iterations.

 Cycle   1  Pass 0  IDiag  1:
 FoFJK:  IHMeth= 1 ICntrl=       0 DoSepK=F KAlg= 0 I1Cent=           0 FoldK=F
 IRaf= 970000000 NMat=       1 IRICut=       1 DoRegI=T DoRafI=F ISym2E= 0 IDoP0=0 IntGTp=1.
 FoFCou: FMM=F IPFlag=           0 FMFlag=      100000 FMFlg1=           0
         NFxFlg=           0 DoJE=F BraDBF=F KetDBF=F FulRan=T
         wScrn=  0.000000 ICntrl=         0 IOpCl=  0 I1Cent=           0 NGrid=           0
         NMat0=    1 NMatS0=      1 NMatT0=    0 NMatD0=    1 NMtDS0=    0 NMtDT0=    0
 Symmetry not used in FoFCou.
 E= -323.526420693468    
 DIIS: error= 2.39D-02 at cycle   1 NSaved=   1.
 NSaved= 1 IEnMin= 1 EnMin= -323.526420693468     IErMin= 1 ErrMin= 2.39D-02
 ErrMax= 2.39D-02  0.00D+00 EMaxC= 1.00D-01 BMatC= 3.04D-01 BMatP= 3.04D-01
 IDIUse=3 WtCom= 7.61D-01 WtEn= 2.39D-01
 Coeff-Com:  0.100D+01
 Coeff-En:   0.100D+01
 Coeff:      0.100D+01
 Gap=     0.280 Goal=   None    Shift=    0.000
 DSYEVD-2 returned Info=       46028 IAlg= 4 N=   228 NDim=   228 NE2=    28255454 trying  DSYEV.
 GapD=    0.280 DampG=1.000 DampE=0.500 DampFc=0.5000 IDamp=-1.
 Damping current iteration by 5.00D-01
 RMSDP=3.44D-03 MaxDP=1.40D-01              OVMax= 1.81D-01

 Cycle   2  Pass 0  IDiag  1:
 RMSU=  1.71D-03    CP:  9.81D-01
 E= -323.626420444040     Delta-E=       -0.099999750572 Rises=F Damp=T
 DIIS: error= 6.82D-03 at cycle   2 NSaved=   2.
 NSaved= 2 IEnMin= 2 EnMin= -323.626420444040     IErMin= 2 ErrMin= 6.82D-03
 ErrMax= 6.82D-03  0.00D+00 EMaxC= 1.00D-01 BMatC= 2.23D-02 BMatP= 3.04D-01
 IDIUse=3 WtCom= 9.32D-01 WtEn= 6.82D-02
 Coeff-Com:  0.485D-02 0.995D+00
 Coeff-En:   0.280D-01 0.972D+00
 Coeff:      0.642D-02 0.994D+00
 Gap=     0.374 Goal=   None    Shift=    0.000
 DSYEVD-2 returned Info=       46028 IAlg= 4 N=   228 NDim=   228 NE2=    28255454 trying  DSYEV.
 RMSDP=9.05D-04 MaxDP=2.40D-02 DE=-1.00D-01 OVMax= 1.04D-01

 Cycle   3  Pass 0  IDiag  1:
 RMSU=  8.91D-04    CP:  9.80D-01  9.10D-01
 E= -323.731207109922     Delta-E=       -0.104786665882 Rises=F Damp=F
 DIIS: error= 5.64D-03 at cycle   3 NSaved=   3.
 NSaved= 3 IEnMin= 3 EnMin= -323.731207109922     IErMin= 3 ErrMin= 5.64D-03
 ErrMax= 5.64D-03  0.00D+00 EMaxC= 1.00D-01 BMatC= 1.11D-02 BMatP= 2.23D-02
 IDIUse=3 WtCom= 9.44D-01 WtEn= 5.64D-02
 Coeff-Com: -0.552D-01 0.409D+00 0.646D+00
 Coeff-En:   0.000D+00 0.000D+00 0.100D+01
 Coeff:     -0.521D-01 0.386D+00 0.666D+00
 Gap=     0.356 Goal=   None    Shift=    0.000
 DSYEVD-2 returned Info=       46028 IAlg= 4 N=   228 NDim=   228 NE2=    28255454 trying  DSYEV.
 RMSDP=3.97D-04 MaxDP=1.70D-02 DE=-1.05D-01 OVMax= 4.81D-02

 Cycle   4  Pass 0  IDiag  1:
 RMSU=  3.65D-04    CP:  9.80D-01  9.45D-01  8.37D-01
 E= -323.736703028246     Delta-E=       -0.005495918324 Rises=F Damp=F
 DIIS: error= 3.14D-03 at cycle   4 NSaved=   4.
 NSaved= 4 IEnMin= 4 EnMin= -323.736703028246     IErMin= 4 ErrMin= 3.14D-03
 ErrMax= 3.14D-03  0.00D+00 EMaxC= 1.00D-01 BMatC= 3.60D-03 BMatP= 1.11D-02
 IDIUse=3 WtCom= 9.69D-01 WtEn= 3.14D-02
 Coeff-Com: -0.255D-01 0.686D-01 0.389D+00 0.568D+00
 Coeff-En:   0.000D+00 0.000D+00 0.257D+00 0.743D+00
 Coeff:     -0.247D-01 0.664D-01 0.385D+00 0.574D+00
 Gap=     0.352 Goal=   None    Shift=    0.000
 DSYEVD-2 returned Info=       46028 IAlg= 4 N=   228 NDim=   228 NE2=    28255454 trying  DSYEV.
 RMSDP=1.68D-04 MaxDP=5.17D-03 DE=-5.50D-03 OVMax= 1.57D-02

 Cycle   5  Pass 0  IDiag  1:
 RMSU=  6.89D-05    CP:  9.79D-01  9.35D-01  9.28D-01  6.48D-01
 E= -323.739246818549     Delta-E=       -0.002543790303 Rises=F Damp=F
 DIIS: error= 3.90D-04 at cycle   5 NSaved=   5.
 NSaved= 5 IEnMin= 5 EnMin= -323.739246818549     IErMin= 5 ErrMin= 3.90D-04
 ErrMax= 3.90D-04  0.00D+00 EMaxC= 1.00D-01 BMatC= 7.09D-05 BMatP= 3.60D-03
 IDIUse=3 WtCom= 9.96D-01 WtEn= 3.90D-03
 Coeff-Com: -0.764D-02 0.131D-01 0.141D+00 0.244D+00 0.610D+00
 Coeff-En:   0.000D+00 0.000D+00 0.000D+00 0.000D+00 0.100D+01
 Coeff:     -0.761D-02 0.131D-01 0.141D+00 0.243D+00 0.611D+00
 Gap=     0.354 Goal=   None    Shift=    0.000
 DSYEVD-2 returned Info=       46028 IAlg= 4 N=   228 NDim=   228 NE2=    28255454 trying  DSYEV.
 RMSDP=2.72D-05 MaxDP=9.39D-04 DE=-2.54D-03 OVMax= 2.54D-03

 Cycle   6  Pass 0  IDiag  1:
 RMSU=  2.27D-05    CP:  9.79D-01  9.36D-01  9.33D-01  6.67D-01  8.21D-01
 E= -323.739299395434     Delta-E=       -0.000052576885 Rises=F Damp=F
 DIIS: error= 1.00D-04 at cycle   6 NSaved=   6.
 NSaved= 6 IEnMin= 6 EnMin= -323.739299395434     IErMin= 6 ErrMin= 1.00D-04
 ErrMax= 1.00D-04  0.00D+00 EMaxC= 1.00D-01 BMatC= 5.44D-06 BMatP= 7.09D-05
 IDIUse=3 WtCom= 9.99D-01 WtEn= 1.00D-03
 Coeff-Com: -0.263D-03-0.167D-02 0.149D-01 0.307D-01 0.231D+00 0.725D+00
 Coeff-En:   0.000D+00 0.000D+00 0.000D+00 0.000D+00 0.000D+00 0.100D+01
 Coeff:     -0.262D-03-0.167D-02 0.149D-01 0.307D-01 0.231D+00 0.726D+00
 Gap=     0.354 Goal=   None    Shift=    0.000
 DSYEVD-2 returned Info=       46028 IAlg= 4 N=   228 NDim=   228 NE2=    28255454 trying  DSYEV.
 RMSDP=1.54D-05 MaxDP=8.41D-04 DE=-5.26D-05 OVMax= 5.94D-04

 Cycle   7  Pass 0  IDiag  1:
 RMSU=  1.04D-05    CP:  9.79D-01  9.32D-01  9.41D-01  6.73D-01  9.02D-01
                    CP:  9.74D-01
 E= -323.739304315453     Delta-E=       -0.000004920019 Rises=F Damp=F
 DIIS: error= 3.74D-05 at cycle   7 NSaved=   7.
 NSaved= 7 IEnMin= 7 EnMin= -323.739304315453     IErMin= 7 ErrMin= 3.74D-05
 ErrMax= 3.74D-05  0.00D+00 EMaxC= 1.00D-01 BMatC= 4.00D-07 BMatP= 5.44D-06
 IDIUse=1 WtCom= 1.00D+00 WtEn= 0.00D+00
 Coeff-Com:  0.901D-03-0.219D-02-0.115D-01-0.210D-01-0.368D-02 0.172D+00
 Coeff-Com:  0.866D+00
 Coeff:      0.901D-03-0.219D-02-0.115D-01-0.210D-01-0.368D-02 0.172D+00
 Coeff:      0.866D+00
 Gap=     0.354 Goal=   None    Shift=    0.000
 DSYEVD-2 returned Info=       46028 IAlg= 4 N=   228 NDim=   228 NE2=    28255454 trying  DSYEV.
 RMSDP=5.03D-06 MaxDP=1.57D-04 DE=-4.92D-06 OVMax= 3.69D-04

 Initial convergence to 1.0D-05 achieved.  Increase integral accuracy.
 Cycle   8  Pass 1  IDiag  1:
 E= -323.739332051686     Delta-E=       -0.000027736232 Rises=F Damp=F
 DIIS: error= 1.64D-05 at cycle   1 NSaved=   1.
 NSaved= 1 IEnMin= 1 EnMin= -323.739332051686     IErMin= 1 ErrMin= 1.64D-05
 ErrMax= 1.64D-05  0.00D+00 EMaxC= 1.00D-01 BMatC= 1.81D-07 BMatP= 1.81D-07
 IDIUse=1 WtCom= 1.00D+00 WtEn= 0.00D+00
 Coeff-Com:  0.100D+01
 Coeff:      0.100D+01
 Gap=     0.354 Goal=   None    Shift=    0.000
 DSYEVD-2 returned Info=       46028 IAlg= 4 N=   228 NDim=   228 NE2=    28255454 trying  DSYEV.
 RMSDP=5.03D-06 MaxDP=1.57D-04 DE=-2.77D-05 OVMax= 1.24D-04

 Cycle   9  Pass 1  IDiag  1:
 RMSU=  5.73D-06    CP:  1.00D+00
 E= -323.739332136225     Delta-E=       -0.000000084540 Rises=F Damp=F
 DIIS: error= 1.49D-05 at cycle   2 NSaved=   2.
 NSaved= 2 IEnMin= 2 EnMin= -323.739332136225     IErMin= 2 ErrMin= 1.49D-05
 ErrMax= 1.49D-05  0.00D+00 EMaxC= 1.00D-01 BMatC= 8.27D-08 BMatP= 1.81D-07
 IDIUse=1 WtCom= 1.00D+00 WtEn= 0.00D+00
 Coeff-Com:  0.373D+00 0.627D+00
 Coeff:      0.373D+00 0.627D+00
 Gap=     0.354 Goal=   None    Shift=    0.000
 DSYEVD-2 returned Info=       46028 IAlg= 4 N=   228 NDim=   228 NE2=    28255454 trying  DSYEV.
 RMSDP=1.04D-06 MaxDP=4.11D-05 DE=-8.45D-08 OVMax= 1.21D-04

 Cycle  10  Pass 1  IDiag  1:
 RMSU=  1.04D-06    CP:  1.00D+00  9.85D-01
 E= -323.739332187674     Delta-E=       -0.000000051449 Rises=F Damp=F
 DIIS: error= 7.06D-06 at cycle   3 NSaved=   3.
 NSaved= 3 IEnMin= 3 EnMin= -323.739332187674     IErMin= 3 ErrMin= 7.06D-06
 ErrMax= 7.06D-06  0.00D+00 EMaxC= 1.00D-01 BMatC= 2.17D-08 BMatP= 8.27D-08
 IDIUse=1 WtCom= 1.00D+00 WtEn= 0.00D+00
 Coeff-Com:  0.170D-02 0.328D+00 0.670D+00
 Coeff:      0.170D-02 0.328D+00 0.670D+00
 Gap=     0.354 Goal=   None    Shift=    0.000
 DSYEVD-2 returned Info=       46028 IAlg= 4 N=   228 NDim=   228 NE2=    28255454 trying  DSYEV.
 RMSDP=6.86D-07 MaxDP=3.53D-05 DE=-5.14D-08 OVMax= 4.21D-05

 Cycle  11  Pass 1  IDiag  1:
 RMSU=  5.14D-07    CP:  1.00D+00  1.06D+00  8.06D-01
 E= -323.739332202047     Delta-E=       -0.000000014373 Rises=F Damp=F
 DIIS: error= 2.65D-06 at cycle   4 NSaved=   4.
 NSaved= 4 IEnMin= 4 EnMin= -323.739332202047     IErMin= 4 ErrMin= 2.65D-06
 ErrMax= 2.65D-06  0.00D+00 EMaxC= 1.00D-01 BMatC= 2.04D-09 BMatP= 2.17D-08
 IDIUse=1 WtCom= 1.00D+00 WtEn= 0.00D+00
 Coeff-Com: -0.289D-01 0.124D+00 0.328D+00 0.577D+00
 Coeff:     -0.289D-01 0.124D+00 0.328D+00 0.577D+00
 Gap=     0.354 Goal=   None    Shift=    0.000
 DSYEVD-2 returned Info=       46028 IAlg= 4 N=   228 NDim=   228 NE2=    28255454 trying  DSYEV.
 RMSDP=1.54D-07 MaxDP=8.26D-06 DE=-1.44D-08 OVMax= 2.31D-05

 Cycle  12  Pass 1  IDiag  1:
 RMSU=  1.44D-07    CP:  1.00D+00  1.06D+00  8.12D-01  9.42D-01
 E= -323.739332203801     Delta-E=       -0.000000001753 Rises=F Damp=F
 DIIS: error= 1.15D-06 at cycle   5 NSaved=   5.
 NSaved= 5 IEnMin= 5 EnMin= -323.739332203801     IErMin= 5 ErrMin= 1.15D-06
 ErrMax= 1.15D-06  0.00D+00 EMaxC= 1.00D-01 BMatC= 2.16D-10 BMatP= 2.04D-09
 IDIUse=1 WtCom= 1.00D+00 WtEn= 0.00D+00
 Coeff-Com: -0.634D-02-0.192D-01-0.519D-01 0.171D+00 0.907D+00
 Coeff:     -0.634D-02-0.192D-01-0.519D-01 0.171D+00 0.907D+00
 Gap=     0.354 Goal=   None    Shift=    0.000
 DSYEVD-2 returned Info=       46028 IAlg= 4 N=   228 NDim=   228 NE2=    28255454 trying  DSYEV.
 RMSDP=1.05D-07 MaxDP=4.11D-06 DE=-1.75D-09 OVMax= 6.73D-06

 Cycle  13  Pass 1  IDiag  1:
 RMSU=  5.15D-08    CP:  1.00D+00  1.07D+00  8.22D-01  1.10D+00  1.09D+00
 E= -323.739332204032     Delta-E=       -0.000000000232 Rises=F Damp=F
 DIIS: error= 2.65D-07 at cycle   6 NSaved=   6.
 NSaved= 6 IEnMin= 6 EnMin= -323.739332204032     IErMin= 6 ErrMin= 2.65D-07
 ErrMax= 2.65D-07  0.00D+00 EMaxC= 1.00D-01 BMatC= 4.01D-11 BMatP= 2.16D-10
 IDIUse=1 WtCom= 1.00D+00 WtEn= 0.00D+00
 Coeff-Com:  0.257D-02-0.321D-01-0.931D-01-0.167D-01 0.447D+00 0.692D+00
 Coeff:      0.257D-02-0.321D-01-0.931D-01-0.167D-01 0.447D+00 0.692D+00
 Gap=     0.354 Goal=   None    Shift=    0.000
 DSYEVD-2 returned Info=       46028 IAlg= 4 N=   228 NDim=   228 NE2=    28255454 trying  DSYEV.
 RMSDP=4.04D-08 MaxDP=1.62D-06 DE=-2.32D-10 OVMax= 3.34D-06

 Cycle  14  Pass 1  IDiag  1:
 RMSU=  1.78D-08    CP:  1.00D+00  1.07D+00  8.24D-01  1.16D+00  1.17D+00
                    CP:  9.51D-01
 E= -323.739332204075     Delta-E=       -0.000000000042 Rises=F Damp=F
 DIIS: error= 5.14D-08 at cycle   7 NSaved=   7.
 NSaved= 7 IEnMin= 7 EnMin= -323.739332204075     IErMin= 7 ErrMin= 5.14D-08
 ErrMax= 5.14D-08  0.00D+00 EMaxC= 1.00D-01 BMatC= 8.81D-13 BMatP= 4.01D-11
 IDIUse=1 WtCom= 1.00D+00 WtEn= 0.00D+00
 Coeff-Com:  0.877D-03-0.681D-02-0.209D-01-0.116D-01 0.630D-01 0.170D+00
 Coeff-Com:  0.806D+00
 Coeff:      0.877D-03-0.681D-02-0.209D-01-0.116D-01 0.630D-01 0.170D+00
 Coeff:      0.806D+00
 Gap=     0.354 Goal=   None    Shift=    0.000
 DSYEVD-2 returned Info=       39616 IAlg= 4 N=   228 NDim=   228 NE2=    28255454 trying  DSYEV.
 RMSDP=6.20D-09 MaxDP=1.64D-07 DE=-4.24D-11 OVMax= 4.40D-07

 SCF Done:  E(RM062X) =  -323.739332204     A.U. after   14 cycles
            NFock= 14  Conv=0.62D-08     -V/T= 2.0050
 KE= 3.221137402395D+02 PE=-1.254478341654D+03 EE= 3.604063461330D+02
 Leave Link  502 at Tue Feb 13 18:20:34 2024, MaxMem=  6442450944 cpu:             242.0 elap:              15.4
 (Enter /usr/local/g16_bin/l601.exe)
 Copying SCF densities to generalized density rwf, IOpCl= 0 IROHF=0.

 **********************************************************************

            Population analysis using the SCF Density.

 **********************************************************************

 Orbital symmetries:
       Occupied  (A) (A) (A) (A) (A) (A) (A) (A) (A) (A) (A) (A)
                 (A) (A) (A) (A) (A) (A) (A) (A) (A) (A) (A) (A)
       Virtual   (A) (A) (A) (A) (A) (A) (A) (A) (A) (A) (A) (A)
                 (A) (A) (A) (A) (A) (A) (A) (A) (A) (A) (A) (A)
                 (A) (A) (A) (A) (A) (A) (A) (A) (A) (A) (A) (A)
                 (A) (A) (A) (A) (A) (A) (A) (A) (A) (A) (A) (A)
                 (A) (A) (A) (A) (A) (A) (A) (A) (A) (A) (A) (A)
                 (A) (A) (A) (A) (A) (A) (A) (A) (A) (A) (A) (A)
                 (A) (A) (A) (A) (A) (A) (A) (A) (A) (A) (A) (A)
                 (A) (A) (A) (A) (A) (A) (A) (A) (A) (A) (A) (A)
                 (A) (A) (A) (A) (A) (A) (A) (A) (A) (A) (A) (A)
                 (A) (A) (A) (A) (A) (A) (A) (A) (A) (A) (A) (A)
                 (A) (A) (A) (A) (A) (A) (A) (A) (A) (A) (A) (A)
                 (A) (A) (A) (A) (A) (A) (A) (A) (A) (A) (A) (A)
                 (A) (A) (A) (A) (A) (A) (A) (A) (A) (A) (A) (A)
                 (A) (A) (A) (A) (A) (A) (A) (A) (A) (A) (A) (A)
                 (A) (A) (A) (A) (A) (A) (A) (A) (A) (A) (A) (A)
                 (A) (A) (A) (A) (A) (A) (A) (A) (A) (A) (A) (A)
                 (A) (A) (A) (A) (A) (A) (A) (A) (A) (A) (A) (A)
 The electronic state is 1-A.
 Alpha  occ. eigenvalues --  -19.68011 -19.62600 -14.73682 -10.68464 -10.58849
 Alpha  occ. eigenvalues --  -10.53871  -1.23188  -1.13967  -1.00962  -0.85175
 Alpha  occ. eigenvalues --   -0.77357  -0.67356  -0.61445  -0.57720  -0.55332
 Alpha  occ. eigenvalues --   -0.52472  -0.50738  -0.48711  -0.47983  -0.44751
 Alpha  occ. eigenvalues --   -0.43397  -0.40040  -0.36371  -0.31847
 Alpha virt. eigenvalues --    0.03589   0.05652   0.06606   0.10456   0.11151
 Alpha virt. eigenvalues --    0.13197   0.14826   0.16699   0.17808   0.18631
 Alpha virt. eigenvalues --    0.22058   0.23571   0.23689   0.27528   0.28423
 Alpha virt. eigenvalues --    0.31479   0.32573   0.33810   0.35887   0.38990
 Alpha virt. eigenvalues --    0.39550   0.40402   0.42129   0.43842   0.44278
 Alpha virt. eigenvalues --    0.46258   0.48416   0.48857   0.50215   0.51576
 Alpha virt. eigenvalues --    0.53655   0.54105   0.54899   0.56737   0.57765
 Alpha virt. eigenvalues --    0.59126   0.61367   0.64428   0.65427   0.68061
 Alpha virt. eigenvalues --    0.70162   0.71621   0.76717   0.80299   0.87707
 Alpha virt. eigenvalues --    0.88640   0.92098   0.94302   0.97289   0.98642
 Alpha virt. eigenvalues --    1.02647   1.04051   1.08252   1.11598   1.14659
 Alpha virt. eigenvalues --    1.17475   1.22127   1.25162   1.27316   1.33710
 Alpha virt. eigenvalues --    1.37691   1.40007   1.42369   1.43569   1.47807
 Alpha virt. eigenvalues --    1.50299   1.53158   1.56161   1.57205   1.58471
 Alpha virt. eigenvalues --    1.59592   1.63882   1.65183   1.67919   1.69978
 Alpha virt. eigenvalues --    1.74229   1.75923   1.80560   1.83767   1.84938
 Alpha virt. eigenvalues --    1.85158   1.87413   1.96433   1.97652   1.99498
 Alpha virt. eigenvalues --    2.02417   2.03561   2.05403   2.10514   2.12291
 Alpha virt. eigenvalues --    2.17578   2.18291   2.18979   2.22711   2.24901
 Alpha virt. eigenvalues --    2.27431   2.27558   2.31643   2.34523   2.36888
 Alpha virt. eigenvalues --    2.37838   2.40055   2.44452   2.46869   2.52729
 Alpha virt. eigenvalues --    2.55438   2.59423   2.60947   2.67622   2.68101
 Alpha virt. eigenvalues --    2.69497   2.71859   2.73680   2.78584   2.80606
 Alpha virt. eigenvalues --    2.84438   2.85683   2.88619   2.92271   2.94951
 Alpha virt. eigenvalues --    2.96545   3.00690   3.03758   3.05257   3.09496
 Alpha virt. eigenvalues --    3.12732   3.14255   3.14719   3.21401   3.24143
 Alpha virt. eigenvalues --    3.25639   3.28093   3.30838   3.32290   3.33894
 Alpha virt. eigenvalues --    3.37554   3.39532   3.42312   3.46705   3.52307
 Alpha virt. eigenvalues --    3.55741   3.57286   3.60649   3.71464   3.75723
 Alpha virt. eigenvalues --    3.78010   3.85315   3.87228   3.91619   3.92713
 Alpha virt. eigenvalues --    4.04900   4.06188   4.07588   4.09626   4.28336
 Alpha virt. eigenvalues --    4.29471   4.33323   4.40497   4.43548   4.46477
 Alpha virt. eigenvalues --    4.49610   4.59085   4.65454   4.72693   4.77318
 Alpha virt. eigenvalues --    4.82757   4.85913   4.91670   5.06853   5.13668
 Alpha virt. eigenvalues --    5.15181   5.17573   5.20971   5.21167   5.28130
 Alpha virt. eigenvalues --    5.35303   5.39104   5.47768   5.50986   5.58203
 Alpha virt. eigenvalues --    5.69676   5.75330   5.87322   5.87712   6.11876
 Alpha virt. eigenvalues --    6.17922   6.30678   6.31621   6.43807   6.46648
 Alpha virt. eigenvalues --    6.60557   6.68039   6.73225   6.81793   6.88708
 Alpha virt. eigenvalues --    7.05245   7.07008   7.25388  22.42660  22.64655
 Alpha virt. eigenvalues --   23.23097  32.11367  43.91353  44.01849
          Condensed to atoms (all electrons):
               1          2          3          4          5          6
     1  O    7.941810  -0.088990   0.002427  -0.099526  -0.002840   0.360615
     2  O   -0.088990   7.838870  -0.008662  -0.051664  -0.013670   0.649111
     3  N    0.002427  -0.008662   6.666820   0.215482  -0.064558  -0.008024
     4  C   -0.099526  -0.051664   0.215482   5.190765   0.300276   0.224058
     5  C   -0.002840  -0.013670  -0.064558   0.300276   5.084700  -0.001579
     6  C    0.360615   0.649111  -0.008024   0.224058  -0.001579   4.511039
     7  H    0.009708   0.004936  -0.029904   0.430456  -0.057494  -0.049778
     8  H    0.001237  -0.000321   0.013013  -0.049236   0.392712  -0.004711
     9  H   -0.000275  -0.000012   0.001588  -0.060494   0.426801   0.010684
    10  H    0.000924   0.007911  -0.006370  -0.003371   0.387414  -0.017899
    11  H   -0.000513  -0.000497   0.382805  -0.066866   0.005419   0.009986
    12  H    0.000470   0.006935   0.368853  -0.023747  -0.005714  -0.021648
    13  H    0.285765   0.004954  -0.000579   0.016785  -0.000602  -0.025360
               7          8          9         10         11         12
     1  O    0.009708   0.001237  -0.000275   0.000924  -0.000513   0.000470
     2  O    0.004936  -0.000321  -0.000012   0.007911  -0.000497   0.006935
     3  N   -0.029904   0.013013   0.001588  -0.006370   0.382805   0.368853
     4  C    0.430456  -0.049236  -0.060494  -0.003371  -0.066866  -0.023747
     5  C   -0.057494   0.392712   0.426801   0.387414   0.005419  -0.005714
     6  C   -0.049778  -0.004711   0.010684  -0.017899   0.009986  -0.021648
     7  H    0.549456  -0.000720  -0.006522   0.007755  -0.010104   0.008076
     8  H   -0.000720   0.547228  -0.019542  -0.020401   0.000476   0.000401
     9  H   -0.006522  -0.019542   0.532293  -0.028489   0.003233  -0.000804
    10  H    0.007755  -0.020401  -0.028489   0.507340  -0.001092   0.004756
    11  H   -0.010104   0.000476   0.003233  -0.001092   0.483416  -0.035542
    12  H    0.008076   0.000401  -0.000804   0.004756  -0.035542   0.453963
    13  H   -0.001185   0.000003   0.000047  -0.000076   0.000076  -0.000048
              13
     1  O    0.285765
     2  O    0.004954
     3  N   -0.000579
     4  C    0.016785
     5  C   -0.000602
     6  C   -0.025360
     7  H   -0.001185
     8  H    0.000003
     9  H    0.000047
    10  H   -0.000076
    11  H    0.000076
    12  H   -0.000048
    13  H    0.378869
 Mulliken charges:
               1
     1  O   -0.410812
     2  O   -0.348900
     3  N   -0.532890
     4  C   -0.022917
     5  C   -0.450864
     6  C    0.363506
     7  H    0.145320
     8  H    0.139861
     9  H    0.141492
    10  H    0.161599
    11  H    0.229202
    12  H    0.244050
    13  H    0.341352
 Sum of Mulliken charges =  -0.00000
 Mulliken charges with hydrogens summed into heavy atoms:
               1
     1  O   -0.069460
     2  O   -0.348900
     3  N   -0.059637
     4  C    0.122403
     5  C   -0.007912
     6  C    0.363506
 Electronic spatial extent (au):  <R**2>=            583.9373
 Charge=             -0.0000 electrons
 Dipole moment (field-independent basis, Debye):
    X=             -1.0849    Y=              1.2942    Z=             -1.1692  Tot=              2.0540
 Quadrupole moment (field-independent basis, Debye-Ang):
   XX=            -27.3986   YY=            -39.0976   ZZ=            -40.2201
   XY=              1.0481   XZ=             -1.9969   YZ=             -0.8764
 Traceless Quadrupole moment (field-independent basis, Debye-Ang):
   XX=              8.1735   YY=             -3.5255   ZZ=             -4.6480
   XY=              1.0481   XZ=             -1.9969   YZ=             -0.8764
 Octapole moment (field-independent basis, Debye-Ang**2):
  XXX=             21.1666  YYY=              4.9866  ZZZ=             -2.8920  XYY=              2.8660
  XXY=             -4.0133  XXZ=             -6.0125  XZZ=             -6.0361  YZZ=             -1.1401
  YYZ=              3.4070  XYZ=              1.8294
 Hexadecapole moment (field-independent basis, Debye-Ang**3):
 XXXX=           -302.7646 YYYY=           -194.0126 ZZZZ=           -152.0017 XXXY=             19.5481
 XXXZ=             -8.0833 YYYX=              2.9017 YYYZ=             -8.2247 ZZZX=             -4.6730
 ZZZY=             -1.3994 XXYY=            -93.6274 XXZZ=            -96.2727 YYZZ=            -54.8250
 XXYZ=              0.6318 YYXZ=             -2.6972 ZZXY=              3.8159
 N-N= 2.482189230774D+02 E-N=-1.254478351859D+03  KE= 3.221137402395D+02
 No NMR shielding tensors so no spin-rotation constants.
 Leave Link  601 at Tue Feb 13 18:20:35 2024, MaxMem=  6442450944 cpu:               3.9 elap:               0.4
 (Enter /usr/local/g16_bin/l701.exe)
 ... and contract with generalized density number  0.
 Compute integral first derivatives.
   1 Symmetry operations used in ECPInt.
 ECPInt:  NShTT=    4465 NPrTT=   13356 LenC2=    4420 LenP2D=   10933.
 LDataN:  DoStor=T MaxTD1= 7 Len=  274
 Leave Link  701 at Tue Feb 13 18:20:35 2024, MaxMem=  6442450944 cpu:               4.1 elap:               0.4
 (Enter /usr/local/g16_bin/l702.exe)
 L702 exits ... SP integral derivatives will be done elsewhere.
 Leave Link  702 at Tue Feb 13 18:20:36 2024, MaxMem=  6442450944 cpu:               0.5 elap:               0.2
 (Enter /usr/local/g16_bin/l703.exe)
 Integral derivatives from FoFJK, PRISM(SPDF).
 Compute integral first derivatives, UseDBF=F ICtDFT=           0.
 Calling FoFJK, ICntrl=      2127 FMM=F ISym2X=0 I1Cent= 0 IOpClX= 0 NMat=1 NMatS=1 NMatT=0.
 FoFJK:  IHMeth= 1 ICntrl=    2127 DoSepK=F KAlg= 0 I1Cent=           0 FoldK=F
 IRaf=         0 NMat=       1 IRICut=       1 DoRegI=T DoRafI=F ISym2E= 0 IDoP0=0 IntGTp=1.
 FoFCou: FMM=F IPFlag=           0 FMFlag=      100000 FMFlg1=         800
         NFxFlg=           0 DoJE=F BraDBF=F KetDBF=F FulRan=T
         wScrn=  0.000000 ICntrl=      2127 IOpCl=  0 I1Cent=           0 NGrid=           0
         NMat0=    1 NMatS0=      1 NMatT0=    0 NMatD0=    1 NMtDS0=    0 NMtDT0=    0
 Symmetry not used in FoFCou.
 Leave Link  703 at Tue Feb 13 18:20:41 2024, MaxMem=  6442450944 cpu:              88.8 elap:               5.7
 (Enter /usr/local/g16_bin/l716.exe)
 Dipole        =-4.26836400D-01 5.09188188D-01-4.60003370D-01
 ***** Axes restored to original set *****
 -------------------------------------------------------------------
 Center     Atomic                   Forces (Hartrees/Bohr)
 Number     Number              X              Y              Z
 -------------------------------------------------------------------
      1        8           0.003367333    0.001448566   -0.009614327
      2        8          -0.018477260   -0.012575843    0.037889478
      3        7          -0.002134853    0.009317867    0.001703910
      4        6          -0.015959293    0.002969801   -0.009375355
      5        6           0.005365911   -0.017074395   -0.001778413
      6        6           0.029033925    0.010616293   -0.019106739
      7        1           0.000891118    0.001318324   -0.004417443
      8        1          -0.001428978    0.000206737   -0.001203434
      9        1           0.003848283    0.002640290    0.001544765
     10        1           0.000996438    0.002661900    0.004376416
     11        1           0.005738710   -0.000179622    0.000560265
     12        1           0.003438491   -0.001464792    0.003630063
     13        1          -0.014679825    0.000114872   -0.004209186
 -------------------------------------------------------------------
 Cartesian Forces:  Max     0.037889478 RMS     0.010743643
 Leave Link  716 at Tue Feb 13 18:20:42 2024, MaxMem=  6442450944 cpu:               0.6 elap:               0.2
 (Enter /usr/local/g16_bin/l103.exe)

 GradGradGradGradGradGradGradGradGradGradGradGradGradGradGradGradGradGrad
 Berny optimization.
 FormGI is forming the generalized inverse of G from B-inverse, IUseBI=4.
 Internal  Forces:  Max     0.043875225 RMS     0.008041807
 Search for a local minimum.
 Step number   1 out of a maximum of   64
 All quantities printed in internal units (Hartrees-Bohrs-Radians)
 RMS Force = .80418D-02 SwitMx=.10000D-02 MixMth= 1
 Mixed Optimization -- RFO/linear search
 Second derivative matrix not updated -- first step.
 ITU=  0
 DSYEVD-2 returned Info=          67 IAlg= 4 N=    33 NDim=    33 NE2=   195179053 trying  DSYEV.
     Eigenvalues ---    0.00466   0.00583   0.00878   0.00972   0.02233
     Eigenvalues ---    0.04519   0.04902   0.05023   0.05495   0.05592
     Eigenvalues ---    0.06644   0.16000   0.16000   0.16000   0.16000
     Eigenvalues ---    0.16000   0.16000   0.17185   0.17853   0.24999
     Eigenvalues ---    0.25000   0.30113   0.30966   0.34108   0.34167
     Eigenvalues ---    0.34178   0.34238   0.36775   0.44358   0.44397
     Eigenvalues ---    0.51187   0.53136   0.94207
 RFO step:  Lambda=-8.92283248D-03 EMin= 4.66326464D-03
 Linear search not attempted -- first point.
 Iteration  1 RMS(Cart)=  0.06275337 RMS(Int)=  0.00203188
 Iteration  2 RMS(Cart)=  0.00250438 RMS(Int)=  0.00034778
 Iteration  3 RMS(Cart)=  0.00000596 RMS(Int)=  0.00034774
 Iteration  4 RMS(Cart)=  0.00000000 RMS(Int)=  0.00034774
 ITry= 1 IFail=0 DXMaxC= 2.00D-01 DCOld= 1.00D+10 DXMaxT= 3.00D-01 DXLimC= 3.00D+00 Rises=F
 Variable       Old X    -DE/DX   Delta X   Delta X   Delta X     New X
                                 (Linear)    (Quad)   (Total)
    R1        2.56827  -0.01784   0.00000  -0.03303  -0.03303   2.53524
    R2        1.85386  -0.01329   0.00000  -0.02552  -0.02552   1.82834
    R3        2.31053  -0.04388   0.00000  -0.04614  -0.04614   2.26439
    R4        2.76187   0.00240   0.00000   0.00638   0.00638   2.76824
    R5        1.92683  -0.00536   0.00000  -0.01184  -0.01184   1.91499
    R6        1.92729  -0.00386   0.00000  -0.00853  -0.00853   1.91876
    R7        2.87739   0.00298   0.00000   0.00960   0.00960   2.88699
    R8        2.86077  -0.00197   0.00000  -0.00619  -0.00619   2.85458
    R9        2.06930  -0.00465   0.00000  -0.01322  -0.01322   2.05608
   R10        2.07031  -0.00100   0.00000  -0.00286  -0.00286   2.06744
   R11        2.07049  -0.00372   0.00000  -0.01060  -0.01060   2.05989
   R12        2.07149  -0.00363   0.00000  -0.01037  -0.01037   2.06112
    A1        1.95241  -0.01395   0.00000  -0.08256  -0.08256   1.86985
    A2        1.91099  -0.00111   0.00000  -0.00293  -0.00292   1.90807
    A3        1.91779  -0.00303   0.00000  -0.01432  -0.01431   1.90348
    A4        1.84595   0.00284   0.00000   0.02452   0.02454   1.87048
    A5        1.91516   0.01515   0.00000   0.09390   0.09379   2.00895
    A6        1.88661  -0.00703   0.00000  -0.03420  -0.03380   1.85281
    A7        1.89697  -0.00322   0.00000  -0.01063  -0.01155   1.88541
    A8        1.93411  -0.00562   0.00000  -0.02766  -0.02727   1.90683
    A9        1.93801  -0.00310   0.00000  -0.01415  -0.01516   1.92285
   A10        1.89180   0.00357   0.00000  -0.00891  -0.00973   1.88207
   A11        1.93705   0.00424   0.00000   0.03058   0.03084   1.96789
   A12        1.94027  -0.00428   0.00000  -0.02826  -0.02859   1.91168
   A13        1.94803  -0.00509   0.00000  -0.03276  -0.03306   1.91496
   A14        1.87519   0.00067   0.00000   0.00889   0.00912   1.88431
   A15        1.87188   0.00113   0.00000   0.01210   0.01238   1.88426
   A16        1.88828   0.00373   0.00000   0.01197   0.01105   1.89934
   A17        2.15067  -0.00120   0.00000  -0.00446  -0.00494   2.14574
   A18        1.92647   0.00962   0.00000   0.03730   0.03684   1.96331
   A19        2.20599  -0.00841   0.00000  -0.03232  -0.03278   2.17322
    D1       -0.00451   0.00058   0.00000   0.02995   0.03036   0.02584
    D2       -3.13620  -0.00038   0.00000  -0.02344  -0.02385   3.12314
    D3        1.04921   0.00213   0.00000   0.00432   0.00470   1.05391
    D4       -3.12291  -0.00001   0.00000   0.00560   0.00529  -3.11763
    D5       -1.07307  -0.00139   0.00000  -0.02960  -0.02969  -1.10276
    D6       -0.97104   0.00106   0.00000  -0.01542  -0.01503  -0.98608
    D7        1.14002  -0.00108   0.00000  -0.01415  -0.01445   1.12557
    D8       -3.09333  -0.00246   0.00000  -0.04935  -0.04942   3.14044
    D9       -3.08882  -0.00225   0.00000  -0.02143  -0.02162  -3.11044
   D10       -1.00276  -0.00143   0.00000  -0.00863  -0.00912  -1.01188
   D11        1.10732  -0.00315   0.00000  -0.03550  -0.03536   1.07197
   D12        1.11222   0.00032   0.00000  -0.02161  -0.02141   1.09081
   D13       -3.08490   0.00114   0.00000  -0.00882  -0.00891  -3.09382
   D14       -0.97482  -0.00058   0.00000  -0.03569  -0.03515  -1.00997
   D15       -0.99133   0.00165   0.00000   0.01764   0.01759  -0.97373
   D16        1.09474   0.00247   0.00000   0.03043   0.03009   1.12483
   D17       -3.07837   0.00076   0.00000   0.00357   0.00385  -3.07451
   D18        2.07925  -0.00470   0.00000   0.00855   0.00846   2.08771
   D19       -1.05204  -0.00575   0.00000  -0.04715  -0.04696  -1.09900
   D20       -2.10469   0.00607   0.00000   0.08555   0.08540  -2.01929
   D21        1.04720   0.00502   0.00000   0.02986   0.02999   1.07719
   D22        0.02609   0.00102   0.00000   0.04467   0.04449   0.07058
   D23       -3.10520  -0.00003   0.00000  -0.01102  -0.01092  -3.11613
         Item               Value     Threshold  Converged?
 Maximum Force            0.043875     0.000450     NO 
 RMS     Force            0.008042     0.000300     NO 
 Maximum Displacement     0.199707     0.001800     NO 
 RMS     Displacement     0.062106     0.001200     NO 
 Predicted change in Energy=-4.690469D-03
 Lowest energy point so far.  Saving SCF results.
 GradGradGradGradGradGradGradGradGradGradGradGradGradGradGradGradGradGrad

 Leave Link  103 at Tue Feb 13 18:20:42 2024, MaxMem=  6442450944 cpu:               1.0 elap:               0.2
 (Enter /usr/local/g16_bin/l202.exe)
                          Input orientation:                          
 ---------------------------------------------------------------------
 Center     Atomic      Atomic             Coordinates (Angstroms)
 Number     Number       Type             X           Y           Z
 ---------------------------------------------------------------------
      1          8           0        1.519027   -0.165382    1.095494
      2          8           0        1.122843    0.422934   -1.021338
      3          7           0       -1.398263    1.190866    0.199998
      4          6           0       -0.746386   -0.107041    0.390789
      5          6           0       -1.301140   -1.243264   -0.466649
      6          6           0        0.712082    0.102039    0.057614
      7          1           0       -0.813506   -0.365725    1.445487
      8          1           0       -0.808274   -2.200258   -0.271251
      9          1           0       -2.365336   -1.365850   -0.264986
     10          1           0       -1.168153   -1.005948   -1.522875
     11          1           0       -2.380981    1.110143    0.433806
     12          1           0       -1.343625    1.448418   -0.780637
     13          1           0        2.427440   -0.023672    0.794179
 ---------------------------------------------------------------------
                    Distance matrix (angstroms):
                    1          2          3          4          5
     1  O    0.000000
     2  O    2.232499   0.000000
     3  N    3.339446   2.904712   0.000000
     4  C    2.373206   2.401872   1.464891   0.000000
     5  C    3.399332   2.993257   2.525636   1.527729   0.000000
     6  C    1.341592   1.198263   2.378944   1.510579   2.477449
     7  H    2.367137   3.233674   2.077536   1.088030   2.159659
     8  H    3.380095   3.342601   3.474173   2.196289   1.094045
     9  H    4.287225   3.992393   2.772767   2.153054   1.090049
    10  H    3.844911   2.746253   2.801291   2.155930   1.090697
    11  H    4.156303   3.855707   1.013369   2.038452   2.741423
    12  H    3.784044   2.681980   1.015364   2.036759   2.710267
    13  H    0.967516   2.279810   4.057605   3.200444   4.120607
                    6          7          8          9         10
     6  C    0.000000
     7  H    2.114808   0.000000
     8  H    2.778526   2.512514   0.000000
     9  H    3.424802   2.516773   1.766555   0.000000
    10  H    2.694599   3.057259   1.767047   1.773432   0.000000
    11  H    3.274879   2.378794   3.732193   2.572760   3.126882
    12  H    2.596408   2.920234   3.722756   3.038074   2.570140
    13  H    1.871038   3.323391   4.042588   5.088612   4.388838
                   11         12         13
    11  H    0.000000
    12  H    1.632609   0.000000
    13  H    4.953414   4.343734   0.000000
 Stoichiometry    C3H7NO2
 Framework group  C1[X(C3H7NO2)]
 Deg. of freedom    33
 Full point group                 C1      NOp   1
 RotChk:  IX=0 Diff= 1.33D-02
 Largest Abelian subgroup         C1      NOp   1
 Largest concise Abelian subgroup C1      NOp   1
                         Standard orientation:                         
 ---------------------------------------------------------------------
 Center     Atomic      Atomic             Coordinates (Angstroms)
 Number     Number       Type             X           Y           Z
 ---------------------------------------------------------------------
      1          8           0        1.705712    0.160284   -0.853105
      2          8           0        1.047355   -0.189306    1.251272
      3          7           0       -1.228013   -1.287138   -0.182191
      4          6           0       -0.629780    0.021893   -0.455070
      5          6           0       -1.363489    1.211228    0.162269
      6          6           0        0.776203   -0.035707    0.094242
      7          1           0       -0.561243    0.142393   -1.534232
      8          1           0       -0.902566    2.170558   -0.091051
      9          1           0       -2.393572    1.228726   -0.193861
     10          1           0       -1.368348    1.116941    1.248872
     11          1           0       -2.170660   -1.309006   -0.553478
     12          1           0       -1.298456   -1.416608    0.822418
     13          1           0        2.568792    0.124650   -0.417318
 ---------------------------------------------------------------------
 Rotational constants (GHZ):           5.1444991           2.7139927           2.6039723
 Leave Link  202 at Tue Feb 13 18:20:42 2024, MaxMem=  6442450944 cpu:               0.4 elap:               0.2
 (Enter /usr/local/g16_bin/l301.exe)
 Standard basis: def2TZVP (5D, 7F)
 Ernie: Thresh=  0.10000D-02 Tol=  0.10000D-05 Strict=F.
 There are   258 symmetry adapted cartesian basis functions of A   symmetry.
 There are   228 symmetry adapted basis functions of A   symmetry.
   228 basis functions,   362 primitive gaussians,   258 cartesian basis functions
    24 alpha electrons       24 beta electrons
       nuclear repulsion energy       250.1319602114 Hartrees.
 IExCor= 4336 DFT=T Ex+Corr=M062X ExCW=0 ScaHFX=  0.540000
 ScaDFX=  1.000000  1.000000  1.000000  1.000000 ScalE2=  1.000000  1.000000
 IRadAn=      5 IRanWt=     -1 IRanGd=            0 ICorTp=0 IEmpDi=  4
 NAtoms=   13 NActive=   13 NUniq=   13 SFac= 1.00D+00 NAtFMM=   60 NAOKFM=F Big=F
 Integral buffers will be    131072 words long.
 Raffenetti 2 integral format.
 Two-electron integral symmetry is turned on.
 Leave Link  301 at Tue Feb 13 18:20:42 2024, MaxMem=  6442450944 cpu:               1.0 elap:               0.2
 (Enter /usr/local/g16_bin/l302.exe)
 NPDir=0 NMtPBC=     1 NCelOv=     1 NCel=       1 NClECP=     1 NCelD=      1
         NCelK=      1 NCelE2=     1 NClLst=     1 CellRange=     0.0.
 One-electron integrals computed using PRISM.
 One-electron integral symmetry used in STVInt
   1 Symmetry operations used in ECPInt.
 ECPInt:  NShTT=    4465 NPrTT=   13356 LenC2=    4421 LenP2D=   10958.
 LDataN:  DoStor=T MaxTD1= 6 Len=  172
 GSVD:  received Info=                   1 from GESDD.
 NBasis=   228 RedAO= T EigKep=  2.18D-04  NBF=   228
 NBsUse=   228 1.00D-06 EigRej= -1.00D+00 NBFU=   228
 Precomputing XC quadrature grid using
 IXCGrd= 4 IRadAn=           5 IRanWt=          -1 IRanGd=           0 AccXCQ= 0.00D+00.
 Generated NRdTot=       0 NPtTot=           0 NUsed=           0 NTot=          32
 NSgBfM=   257   257   257   257   257 MxSgAt=    13 MxSgA2=    13.
 Leave Link  302 at Tue Feb 13 18:20:43 2024, MaxMem=  6442450944 cpu:               4.4 elap:               0.5
 (Enter /usr/local/g16_bin/l303.exe)
 DipDrv:  MaxL=1.
 Leave Link  303 at Tue Feb 13 18:20:43 2024, MaxMem=  6442450944 cpu:               0.6 elap:               0.2
 (Enter /usr/local/g16_bin/l401.exe)
 Initial guess from the checkpoint file:  "/scratch/16209.qtcovimaster/Gau-157702.chk"
 B after Tr=    -0.000000    0.000000   -0.000000
         Rot=    0.999988   -0.002667    0.001034    0.004084 Ang=  -0.57 deg.
 Guess basis will be translated and rotated to current coordinates.
 JPrj=2 DoOrth=T DoCkMO=T.
 Generating alternative initial guess.
 ExpMin= 9.52D-02 ExpMax= 2.70D+04 ExpMxC= 9.22D+02 IAcc=3 IRadAn=         5 AccDes= 0.00D+00
 Harris functional with IExCor= 1009 and IRadAn=       5 diagonalized for initial guess.
 HarFok:  IExCor= 1009 AccDes= 0.00D+00 IRadAn=         5 IDoV= 1 UseB2=F ITyADJ=14
 ICtDFT=  3500011 ScaDFX=  1.000000  1.000000  1.000000  1.000000
 FoFCou: FMM=F IPFlag=           0 FMFlag=      100000 FMFlg1=           0
         NFxFlg=           0 DoJE=T BraDBF=F KetDBF=T FulRan=T
         wScrn=  0.000000 ICntrl=       500 IOpCl=  0 I1Cent=   200000004 NGrid=           0
         NMat0=    1 NMatS0=      1 NMatT0=    0 NMatD0=    1 NMtDS0=    0 NMtDT0=    0
 Petite list used in FoFCou.
 Harris En= -323.619317915954    
 Leave Link  401 at Tue Feb 13 18:20:44 2024, MaxMem=  6442450944 cpu:              13.8 elap:               1.0
 (Enter /usr/local/g16_bin/l502.exe)
 Integral symmetry usage will be decided dynamically.
 Closed shell SCF:
 Using DIIS extrapolation, IDIIS=  1040.
 NGot=  6442450944 LenX=  6442310950 LenY=  6442243945
 Requested convergence on RMS density matrix=1.00D-08 within 128 cycles.
 Requested convergence on MAX density matrix=1.00D-06.
 Requested convergence on             energy=1.00D-06.
 No special actions if energy rises.
 Fock matrices will be formed incrementally for  20 cycles.
 Integral accuracy reduced to 1.0D-05 until final iterations.

 Cycle   1  Pass 0  IDiag  1:
 FoFJK:  IHMeth= 1 ICntrl=       0 DoSepK=F KAlg= 0 I1Cent=           0 FoldK=F
 IRaf= 980000000 NMat=       1 IRICut=       1 DoRegI=T DoRafI=F ISym2E= 0 IDoP0=0 IntGTp=1.
 FoFCou: FMM=F IPFlag=           0 FMFlag=      100000 FMFlg1=           0
         NFxFlg=           0 DoJE=F BraDBF=F KetDBF=F FulRan=T
         wScrn=  0.000000 ICntrl=         0 IOpCl=  0 I1Cent=           0 NGrid=           0
         NMat0=    1 NMatS0=      1 NMatT0=    0 NMatD0=    1 NMtDS0=    0 NMtDT0=    0
 Symmetry not used in FoFCou.
 E= -323.739618931537    
 DIIS: error= 2.82D-03 at cycle   1 NSaved=   1.
 NSaved= 1 IEnMin= 1 EnMin= -323.739618931537     IErMin= 1 ErrMin= 2.82D-03
 ErrMax= 2.82D-03  0.00D+00 EMaxC= 1.00D-01 BMatC= 3.44D-03 BMatP= 3.44D-03
 IDIUse=3 WtCom= 9.72D-01 WtEn= 2.82D-02
 Coeff-Com:  0.100D+01
 Coeff-En:   0.100D+01
 Coeff:      0.100D+01
 Gap=     0.769 Goal=   None    Shift=    0.000
 DSYEVD-2 returned Info=       39616 IAlg= 4 N=   228 NDim=   228 NE2=    28255454 trying  DSYEV.
 GapD=    0.769 DampG=2.000 DampE=1.000 DampFc=2.0000 IDamp=-1.
 RMSDP=4.19D-04 MaxDP=1.48D-02              OVMax= 1.49D-02

 Cycle   2  Pass 0  IDiag  1:
 RMSU=  4.19D-04    CP:  9.99D-01
 E= -323.743351141581     Delta-E=       -0.003732210044 Rises=F Damp=F
 DIIS: error= 5.18D-04 at cycle   2 NSaved=   2.
 NSaved= 2 IEnMin= 2 EnMin= -323.743351141581     IErMin= 2 ErrMin= 5.18D-04
 ErrMax= 5.18D-04  0.00D+00 EMaxC= 1.00D-01 BMatC= 1.68D-04 BMatP= 3.44D-03
 IDIUse=3 WtCom= 9.95D-01 WtEn= 5.18D-03
 Coeff-Com: -0.168D-01 0.102D+01
 Coeff-En:   0.000D+00 0.100D+01
 Coeff:     -0.167D-01 0.102D+01
 Gap=     0.371 Goal=   None    Shift=    0.000
 DSYEVD-2 returned Info=       46028 IAlg= 4 N=   228 NDim=   228 NE2=    28255454 trying  DSYEV.
 RMSDP=9.07D-05 MaxDP=1.96D-03 DE=-3.73D-03 OVMax= 4.70D-03

 Cycle   3  Pass 0  IDiag  1:
 RMSU=  7.85D-05    CP:  9.99D-01  1.11D+00
 E= -323.743521152142     Delta-E=       -0.000170010562 Rises=F Damp=F
 DIIS: error= 4.64D-04 at cycle   3 NSaved=   3.
 NSaved= 3 IEnMin= 3 EnMin= -323.743521152142     IErMin= 3 ErrMin= 4.64D-04
 ErrMax= 4.64D-04  0.00D+00 EMaxC= 1.00D-01 BMatC= 7.79D-05 BMatP= 1.68D-04
 IDIUse=3 WtCom= 9.95D-01 WtEn= 4.64D-03
 Coeff-Com: -0.572D-01 0.410D+00 0.647D+00
 Coeff-En:   0.000D+00 0.000D+00 0.100D+01
 Coeff:     -0.570D-01 0.408D+00 0.649D+00
 Gap=     0.369 Goal=   None    Shift=    0.000
 DSYEVD-2 returned Info=       46028 IAlg= 4 N=   228 NDim=   228 NE2=    28255454 trying  DSYEV.
 RMSDP=3.37D-05 MaxDP=8.96D-04 DE=-1.70D-04 OVMax= 1.58D-03

 Cycle   4  Pass 0  IDiag  1:
 RMSU=  2.26D-05    CP:  9.99D-01  1.15D+00  7.59D-01
 E= -323.743579622397     Delta-E=       -0.000058470255 Rises=F Damp=F
 DIIS: error= 9.92D-05 at cycle   4 NSaved=   4.
 NSaved= 4 IEnMin= 4 EnMin= -323.743579622397     IErMin= 4 ErrMin= 9.92D-05
 ErrMax= 9.92D-05  0.00D+00 EMaxC= 1.00D-01 BMatC= 3.31D-06 BMatP= 7.79D-05
 IDIUse=1 WtCom= 1.00D+00 WtEn= 0.00D+00
 Coeff-Com: -0.141D-01 0.413D-01 0.176D+00 0.797D+00
 Coeff:     -0.141D-01 0.413D-01 0.176D+00 0.797D+00
 Gap=     0.369 Goal=   None    Shift=    0.000
 DSYEVD-2 returned Info=       46028 IAlg= 4 N=   228 NDim=   228 NE2=    28255454 trying  DSYEV.
 RMSDP=9.19D-06 MaxDP=3.15D-04 DE=-5.85D-05 OVMax= 6.36D-04

 Initial convergence to 1.0D-05 achieved.  Increase integral accuracy.
 Cycle   5  Pass 1  IDiag  1:
 E= -323.743593542546     Delta-E=       -0.000013920149 Rises=F Damp=F
 DIIS: error= 4.44D-05 at cycle   1 NSaved=   1.
 NSaved= 1 IEnMin= 1 EnMin= -323.743593542546     IErMin= 1 ErrMin= 4.44D-05
 ErrMax= 4.44D-05  0.00D+00 EMaxC= 1.00D-01 BMatC= 1.38D-06 BMatP= 1.38D-06
 IDIUse=1 WtCom= 1.00D+00 WtEn= 0.00D+00
 Coeff-Com:  0.100D+01
 Coeff:      0.100D+01
 Gap=     0.369 Goal=   None    Shift=    0.000
 DSYEVD-2 returned Info=       46028 IAlg= 4 N=   228 NDim=   228 NE2=    28255454 trying  DSYEV.
 RMSDP=9.19D-06 MaxDP=3.15D-04 DE=-1.39D-05 OVMax= 5.81D-04

 Cycle   6  Pass 1  IDiag  1:
 RMSU=  9.18D-06    CP:  1.00D+00
 E= -323.743593108536     Delta-E=        0.000000434010 Rises=F Damp=F
 DIIS: error= 6.93D-05 at cycle   2 NSaved=   2.
 NSaved= 2 IEnMin= 1 EnMin= -323.743593542546     IErMin= 1 ErrMin= 4.44D-05
 ErrMax= 6.93D-05  0.00D+00 EMaxC= 1.00D-01 BMatC= 2.26D-06 BMatP= 1.38D-06
 IDIUse=1 WtCom= 1.00D+00 WtEn= 0.00D+00
 Coeff-Com:  0.565D+00 0.435D+00
 Coeff:      0.565D+00 0.435D+00
 Gap=     0.369 Goal=   None    Shift=    0.000
 DSYEVD-2 returned Info=       46028 IAlg= 4 N=   228 NDim=   228 NE2=    28255454 trying  DSYEV.
 RMSDP=4.44D-06 MaxDP=1.55D-04 DE= 4.34D-07 OVMax= 4.28D-04

 Cycle   7  Pass 1  IDiag  1:
 RMSU=  2.74D-06    CP:  1.00D+00  6.20D-01
 E= -323.743594629619     Delta-E=       -0.000001521083 Rises=F Damp=F
 DIIS: error= 1.03D-05 at cycle   3 NSaved=   3.
 NSaved= 3 IEnMin= 3 EnMin= -323.743594629619     IErMin= 3 ErrMin= 1.03D-05
 ErrMax= 1.03D-05  0.00D+00 EMaxC= 1.00D-01 BMatC= 3.18D-08 BMatP= 1.38D-06
 IDIUse=1 WtCom= 1.00D+00 WtEn= 0.00D+00
 Coeff-Com:  0.113D+00 0.135D+00 0.752D+00
 Coeff:      0.113D+00 0.135D+00 0.752D+00
 Gap=     0.369 Goal=   None    Shift=    0.000
 DSYEVD-2 returned Info=       46028 IAlg= 4 N=   228 NDim=   228 NE2=    28255454 trying  DSYEV.
 RMSDP=8.33D-07 MaxDP=2.14D-05 DE=-1.52D-06 OVMax= 8.56D-05

 Cycle   8  Pass 1  IDiag  1:
 RMSU=  7.53D-07    CP:  1.00D+00  6.55D-01  1.05D+00
 E= -323.743594658449     Delta-E=       -0.000000028830 Rises=F Damp=F
 DIIS: error= 6.64D-06 at cycle   4 NSaved=   4.
 NSaved= 4 IEnMin= 4 EnMin= -323.743594658449     IErMin= 4 ErrMin= 6.64D-06
 ErrMax= 6.64D-06  0.00D+00 EMaxC= 1.00D-01 BMatC= 1.10D-08 BMatP= 3.18D-08
 IDIUse=1 WtCom= 1.00D+00 WtEn= 0.00D+00
 Coeff-Com: -0.548D-01-0.142D-01 0.397D+00 0.672D+00
 Coeff:     -0.548D-01-0.142D-01 0.397D+00 0.672D+00
 Gap=     0.369 Goal=   None    Shift=    0.000
 DSYEVD-2 returned Info=       46028 IAlg= 4 N=   228 NDim=   228 NE2=    28255454 trying  DSYEV.
 RMSDP=4.34D-07 MaxDP=1.29D-05 DE=-2.88D-08 OVMax= 5.55D-05

 Cycle   9  Pass 1  IDiag  1:
 RMSU=  3.42D-07    CP:  1.00D+00  6.68D-01  1.14D+00  1.01D+00
 E= -323.743594671355     Delta-E=       -0.000000012907 Rises=F Damp=F
 DIIS: error= 1.56D-06 at cycle   5 NSaved=   5.
 NSaved= 5 IEnMin= 5 EnMin= -323.743594671355     IErMin= 5 ErrMin= 1.56D-06
 ErrMax= 1.56D-06  0.00D+00 EMaxC= 1.00D-01 BMatC= 7.94D-10 BMatP= 1.10D-08
 IDIUse=1 WtCom= 1.00D+00 WtEn= 0.00D+00
 Coeff-Com: -0.299D-01-0.194D-01 0.269D-01 0.190D+00 0.832D+00
 Coeff:     -0.299D-01-0.194D-01 0.269D-01 0.190D+00 0.832D+00
 Gap=     0.369 Goal=   None    Shift=    0.000
 DSYEVD-2 returned Info=       46028 IAlg= 4 N=   228 NDim=   228 NE2=    28255454 trying  DSYEV.
 RMSDP=2.03D-07 MaxDP=6.46D-06 DE=-1.29D-08 OVMax= 3.11D-05

 Cycle  10  Pass 1  IDiag  1:
 RMSU=  1.33D-07    CP:  1.00D+00  6.76D-01  1.16D+00  1.14D+00  1.21D+00
 E= -323.743594673094     Delta-E=       -0.000000001739 Rises=F Damp=F
 DIIS: error= 6.71D-07 at cycle   6 NSaved=   6.
 NSaved= 6 IEnMin= 6 EnMin= -323.743594673094     IErMin= 6 ErrMin= 6.71D-07
 ErrMax= 6.71D-07  0.00D+00 EMaxC= 1.00D-01 BMatC= 1.38D-10 BMatP= 7.94D-10
 IDIUse=1 WtCom= 1.00D+00 WtEn= 0.00D+00
 Coeff-Com:  0.568D-02-0.176D-02-0.975D-01-0.118D+00 0.233D+00 0.978D+00
 Coeff:      0.568D-02-0.176D-02-0.975D-01-0.118D+00 0.233D+00 0.978D+00
 Gap=     0.369 Goal=   None    Shift=    0.000
 DSYEVD-2 returned Info=       46028 IAlg= 4 N=   228 NDim=   228 NE2=    28255454 trying  DSYEV.
 RMSDP=1.19D-07 MaxDP=4.33D-06 DE=-1.74D-09 OVMax= 2.05D-05

 Cycle  11  Pass 1  IDiag  1:
 RMSU=  4.93D-08    CP:  1.00D+00  6.76D-01  1.18D+00  1.23D+00  1.42D+00
                    CP:  1.12D+00
 E= -323.743594673488     Delta-E=       -0.000000000394 Rises=F Damp=F
 DIIS: error= 1.17D-07 at cycle   7 NSaved=   7.
 NSaved= 7 IEnMin= 7 EnMin= -323.743594673488     IErMin= 7 ErrMin= 1.17D-07
 ErrMax= 1.17D-07  0.00D+00 EMaxC= 1.00D-01 BMatC= 3.59D-12 BMatP= 1.38D-10
 IDIUse=1 WtCom= 1.00D+00 WtEn= 0.00D+00
 Coeff-Com:  0.173D-02 0.892D-03-0.387D-02-0.130D-01-0.334D-01 0.353D-01
 Coeff-Com:  0.101D+01
 Coeff:      0.173D-02 0.892D-03-0.387D-02-0.130D-01-0.334D-01 0.353D-01
 Coeff:      0.101D+01
 Gap=     0.369 Goal=   None    Shift=    0.000
 DSYEVD-2 returned Info=       39616 IAlg= 4 N=   228 NDim=   228 NE2=    28255454 trying  DSYEV.
 RMSDP=2.22D-08 MaxDP=6.36D-07 DE=-3.94D-10 OVMax= 2.99D-06

 Cycle  12  Pass 1  IDiag  1:
 RMSU=  1.59D-08    CP:  1.00D+00  6.77D-01  1.17D+00  1.23D+00  1.45D+00
                    CP:  1.18D+00  1.17D+00
 E= -323.743594673499     Delta-E=       -0.000000000011 Rises=F Damp=F
 DIIS: error= 3.12D-08 at cycle   8 NSaved=   8.
 NSaved= 8 IEnMin= 8 EnMin= -323.743594673499     IErMin= 8 ErrMin= 3.12D-08
 ErrMax= 3.12D-08  0.00D+00 EMaxC= 1.00D-01 BMatC= 4.08D-13 BMatP= 3.59D-12
 IDIUse=1 WtCom= 1.00D+00 WtEn= 0.00D+00
 Coeff-Com: -0.402D-03 0.258D-03 0.108D-01 0.113D-01-0.322D-01-0.108D+00
 Coeff-Com:  0.148D+00 0.970D+00
 Coeff:     -0.402D-03 0.258D-03 0.108D-01 0.113D-01-0.322D-01-0.108D+00
 Coeff:      0.148D+00 0.970D+00
 Gap=     0.369 Goal=   None    Shift=    0.000
 DSYEVD-2 returned Info=       39616 IAlg= 4 N=   228 NDim=   228 NE2=    28255454 trying  DSYEV.
 RMSDP=7.37D-09 MaxDP=2.07D-07 DE=-1.07D-11 OVMax= 8.53D-07

 SCF Done:  E(RM062X) =  -323.743594673     A.U. after   12 cycles
            NFock= 12  Conv=0.74D-08     -V/T= 2.0044
 KE= 3.223274346848D+02 PE=-1.258442117788D+03 EE= 3.622391282181D+02
 Leave Link  502 at Tue Feb 13 18:21:00 2024, MaxMem=  6442450944 cpu:             252.3 elap:              16.1
 (Enter /usr/local/g16_bin/l701.exe)
 ... and contract with generalized density number  0.
 Compute integral first derivatives.
   1 Symmetry operations used in ECPInt.
 ECPInt:  NShTT=    4465 NPrTT=   13356 LenC2=    4421 LenP2D=   10958.
 LDataN:  DoStor=T MaxTD1= 7 Len=  274
 Leave Link  701 at Tue Feb 13 18:21:01 2024, MaxMem=  6442450944 cpu:               4.0 elap:               0.4
 (Enter /usr/local/g16_bin/l702.exe)
 L702 exits ... SP integral derivatives will be done elsewhere.
 Leave Link  702 at Tue Feb 13 18:21:01 2024, MaxMem=  6442450944 cpu:               0.3 elap:               0.2
 (Enter /usr/local/g16_bin/l703.exe)
 Integral derivatives from FoFJK, PRISM(SPDF).
 Compute integral first derivatives, UseDBF=F ICtDFT=           0.
 Calling FoFJK, ICntrl=      2127 FMM=F ISym2X=0 I1Cent= 0 IOpClX= 0 NMat=1 NMatS=1 NMatT=0.
 FoFJK:  IHMeth= 1 ICntrl=    2127 DoSepK=F KAlg= 0 I1Cent=           0 FoldK=F
 IRaf=         0 NMat=       1 IRICut=       1 DoRegI=T DoRafI=F ISym2E= 0 IDoP0=0 IntGTp=1.
 FoFCou: FMM=F IPFlag=           0 FMFlag=      100000 FMFlg1=         800
         NFxFlg=           0 DoJE=F BraDBF=F KetDBF=F FulRan=T
         wScrn=  0.000000 ICntrl=      2127 IOpCl=  0 I1Cent=           0 NGrid=           0
         NMat0=    1 NMatS0=      1 NMatT0=    0 NMatD0=    1 NMtDS0=    0 NMtDT0=    0
 Symmetry not used in FoFCou.
 Leave Link  703 at Tue Feb 13 18:21:07 2024, MaxMem=  6442450944 cpu:              83.9 elap:               5.4
 (Enter /usr/local/g16_bin/l716.exe)
 Dipole        =-4.34221191D-01 4.82071136D-01-3.76585534D-01
 ***** Axes restored to original set *****
 -------------------------------------------------------------------
 Center     Atomic                   Forces (Hartrees/Bohr)
 Number     Number              X              Y              Z
 -------------------------------------------------------------------
      1        8           0.000269451    0.000991186   -0.000044188
      2        8          -0.000759216    0.002759185   -0.000654350
      3        7          -0.000612754   -0.004303137   -0.000916264
      4        6          -0.002562480    0.003207864    0.000295787
      5        6          -0.000362577   -0.001356978   -0.001419383
      6        6           0.002541383   -0.005789579    0.000791187
      7        1          -0.000373045    0.000171121    0.000950889
      8        1           0.000398885    0.002382228    0.001127924
      9        1          -0.000449594    0.000092961    0.000075953
     10        1          -0.000307182    0.000552607   -0.000126820
     11        1          -0.000202899    0.000592658    0.000100243
     12        1           0.000958288    0.000542384   -0.000064878
     13        1           0.001461740    0.000157499   -0.000116100
 -------------------------------------------------------------------
 Cartesian Forces:  Max     0.005789579 RMS     0.001629438
 Leave Link  716 at Tue Feb 13 18:21:07 2024, MaxMem=  6442450944 cpu:               0.3 elap:               0.2
 (Enter /usr/local/g16_bin/l103.exe)

 GradGradGradGradGradGradGradGradGradGradGradGradGradGradGradGradGradGrad
 Berny optimization.
 Using GEDIIS/GDIIS optimizer.
 FormGI is forming the generalized inverse of G from B-inverse, IUseBI=4.
 Internal  Forces:  Max     0.003271121 RMS     0.001143316
 Search for a local minimum.
 Step number   2 out of a maximum of   64
 All quantities printed in internal units (Hartrees-Bohrs-Radians)
 RMS Force = .11433D-02 SwitMx=.10000D-02 MixMth= 1
 Mixed Optimization -- RFO/linear search
 Update second derivatives using D2CorX and points    1    2
 DE= -4.26D-03 DEPred=-4.69D-03 R= 9.09D-01
 TightC=F SS=  1.41D+00  RLast= 2.28D-01 DXNew= 5.0454D-01 6.8263D-01
 Trust test= 9.09D-01 RLast= 2.28D-01 DXMaxT set to 5.05D-01
 ITU=  1  0
 Use linear search instead of GDIIS.
 DSYEVD-2 returned Info=          67 IAlg= 4 N=    33 NDim=    33 NE2=   195179051 trying  DSYEV.
     Eigenvalues ---    0.00466   0.00579   0.00875   0.01039   0.02233
     Eigenvalues ---    0.04499   0.04519   0.05109   0.05492   0.05827
     Eigenvalues ---    0.07018   0.15462   0.16000   0.16000   0.16000
     Eigenvalues ---    0.16000   0.16439   0.18193   0.18399   0.24038
     Eigenvalues ---    0.24987   0.30148   0.31198   0.34070   0.34137
     Eigenvalues ---    0.34194   0.34423   0.37009   0.44369   0.44419
     Eigenvalues ---    0.51510   0.53319   0.93711
 RFO step:  Lambda=-9.74504009D-04 EMin= 4.66244441D-03
 Quartic linear search produced a step of -0.04580.
 Iteration  1 RMS(Cart)=  0.03491892 RMS(Int)=  0.00203854
 Iteration  2 RMS(Cart)=  0.00189061 RMS(Int)=  0.00078427
 Iteration  3 RMS(Cart)=  0.00000347 RMS(Int)=  0.00078426
 Iteration  4 RMS(Cart)=  0.00000000 RMS(Int)=  0.00078426
 ITry= 1 IFail=0 DXMaxC= 1.55D-01 DCOld= 1.00D+10 DXMaxT= 5.05D-01 DXLimC= 3.00D+00 Rises=F
 Variable       Old X    -DE/DX   Delta X   Delta X   Delta X     New X
                                 (Linear)    (Quad)   (Total)
    R1        2.53524   0.00069   0.00151  -0.00407  -0.00256   2.53268
    R2        1.82834   0.00143   0.00117  -0.00144  -0.00027   1.82807
    R3        2.26439   0.00107   0.00211  -0.00632  -0.00421   2.26018
    R4        2.76824  -0.00276  -0.00029  -0.00611  -0.00640   2.76184
    R5        1.91499   0.00017   0.00054  -0.00153  -0.00099   1.91400
    R6        1.91876   0.00025   0.00039  -0.00083  -0.00044   1.91832
    R7        2.88699  -0.00079  -0.00044  -0.00095  -0.00139   2.88560
    R8        2.85458   0.00314   0.00028   0.00864   0.00893   2.86351
    R9        2.05608   0.00090   0.00061   0.00038   0.00099   2.05707
   R10        2.06744  -0.00170   0.00013  -0.00520  -0.00507   2.06237
   R11        2.05989   0.00044   0.00049  -0.00047   0.00001   2.05991
   R12        2.06112   0.00021   0.00047  -0.00110  -0.00062   2.06050
    A1        1.86985   0.00064   0.00378  -0.00957  -0.00579   1.86406
    A2        1.90807   0.00114   0.00013   0.00920   0.00930   1.91737
    A3        1.90348  -0.00001   0.00066   0.00057   0.00119   1.90467
    A4        1.87048   0.00007  -0.00112   0.01060   0.00940   1.87989
    A5        2.00895  -0.00105  -0.00430   0.00603   0.00171   2.01066
    A6        1.85281   0.00061   0.00155  -0.00515  -0.00363   1.84918
    A7        1.88541   0.00032   0.00053   0.00273   0.00331   1.88872
    A8        1.90683  -0.00036   0.00125  -0.00906  -0.00784   1.89900
    A9        1.92285   0.00031   0.00069  -0.00014   0.00060   1.92346
   A10        1.88207   0.00026   0.00045   0.00566   0.00615   1.88822
   A11        1.96789  -0.00292  -0.00141  -0.01328  -0.01473   1.95316
   A12        1.91168   0.00040   0.00131  -0.00205  -0.00074   1.91094
   A13        1.91496   0.00011   0.00151  -0.00408  -0.00256   1.91240
   A14        1.88431   0.00114  -0.00042   0.00691   0.00646   1.89077
   A15        1.88426   0.00140  -0.00057   0.00983   0.00922   1.89348
   A16        1.89934  -0.00002  -0.00051   0.00347   0.00300   1.90234
   A17        2.14574  -0.00046   0.00023  -0.00049  -0.00360   2.14214
   A18        1.96331   0.00327  -0.00169   0.02033   0.01536   1.97867
   A19        2.17322  -0.00274   0.00150  -0.01388  -0.01564   2.15758
    D1        0.02584  -0.00081  -0.00139  -0.06933  -0.07112  -0.04528
    D2        3.12314   0.00088   0.00109   0.07336   0.07485  -3.08519
    D3        1.05391   0.00029  -0.00022  -0.01417  -0.01438   1.03952
    D4       -3.11763  -0.00037  -0.00024  -0.02562  -0.02583   3.13973
    D5       -1.10276   0.00038   0.00136  -0.02035  -0.01897  -1.12173
    D6       -0.98608  -0.00044   0.00069  -0.03242  -0.03176  -1.01784
    D7        1.12557  -0.00110   0.00066  -0.04387  -0.04321   1.08236
    D8        3.14044  -0.00035   0.00226  -0.03859  -0.03635   3.10409
    D9       -3.11044  -0.00006   0.00099  -0.02080  -0.01980  -3.13023
   D10       -1.01188  -0.00026   0.00042  -0.02217  -0.02172  -1.03360
   D11        1.07197   0.00002   0.00162  -0.02166  -0.02005   1.05191
   D12        1.09081   0.00011   0.00098  -0.01153  -0.01055   1.08026
   D13       -3.09382  -0.00009   0.00041  -0.01289  -0.01247  -3.10629
   D14       -1.00997   0.00019   0.00161  -0.01239  -0.01081  -1.02078
   D15       -0.97373  -0.00017  -0.00081  -0.01286  -0.01367  -0.98740
   D16        1.12483  -0.00037  -0.00138  -0.01423  -0.01559   1.10924
   D17       -3.07451  -0.00009  -0.00018  -0.01373  -0.01392  -3.08844
   D18        2.08771   0.00016  -0.00039  -0.00723  -0.00740   2.08031
   D19       -1.09900   0.00196   0.00215   0.13853   0.14043  -0.95856
   D20       -2.01929  -0.00094  -0.00391  -0.00850  -0.01216  -2.03145
   D21        1.07719   0.00086  -0.00137   0.13726   0.13567   1.21286
   D22        0.07058  -0.00063  -0.00204  -0.01052  -0.01233   0.05825
   D23       -3.11613   0.00117   0.00050   0.13524   0.13550  -2.98062
         Item               Value     Threshold  Converged?
 Maximum Force            0.003271     0.000450     NO 
 RMS     Force            0.001143     0.000300     NO 
 Maximum Displacement     0.155133     0.001800     NO 
 RMS     Displacement     0.034755     0.001200     NO 
 Predicted change in Energy=-5.340120D-04
 Lowest energy point so far.  Saving SCF results.
 GradGradGradGradGradGradGradGradGradGradGradGradGradGradGradGradGradGrad

 Leave Link  103 at Tue Feb 13 18:21:07 2024, MaxMem=  6442450944 cpu:               1.4 elap:               0.3
 (Enter /usr/local/g16_bin/l202.exe)
                          Input orientation:                          
 ---------------------------------------------------------------------
 Center     Atomic      Atomic             Coordinates (Angstroms)
 Number     Number       Type             X           Y           Z
 ---------------------------------------------------------------------
      1          8           0        1.532472   -0.188842    1.083148
      2          8           0        1.099124    0.505027   -0.988361
      3          7           0       -1.382699    1.181441    0.191916
      4          6           0       -0.753049   -0.121954    0.393648
      5          6           0       -1.314667   -1.254851   -0.462417
      6          6           0        0.711815    0.066319    0.054727
      7          1           0       -0.827560   -0.376084    1.449496
      8          1           0       -0.814747   -2.203816   -0.260885
[...]
 ! R9    R(4,7)                  1.0924         -DE/DX =    0.0                 !
 ! R10   R(5,8)                  1.0902         -DE/DX =    0.0                 !
 ! R11   R(5,9)                  1.0904         -DE/DX =    0.0                 !
 ! R12   R(5,10)                 1.0914         -DE/DX =    0.0                 !
 ! A1    A(6,1,13)             107.2924         -DE/DX =    0.0                 !
 ! A2    A(4,3,11)             110.8011         -DE/DX =    0.0                 !
 ! A3    A(4,3,12)             109.6711         -DE/DX =    0.0                 !
 ! A4    A(11,3,12)            108.6192         -DE/DX =    0.0                 !
 ! A5    A(3,4,5)              114.9452         -DE/DX =    0.0                 !
 ! A6    A(3,4,6)              108.1901         -DE/DX =    0.0                 !
 ! A7    A(3,4,7)              109.5947         -DE/DX =    0.0                 !
 ! A8    A(5,4,6)              107.7279         -DE/DX =    0.0                 !
 ! A9    A(5,4,7)              108.7645         -DE/DX =    0.0                 !
 ! A10   A(6,4,7)              107.3457         -DE/DX =    0.0                 !
 ! A11   A(4,5,8)              111.4463         -DE/DX =    0.0                 !
 ! A12   A(4,5,9)              109.4189         -DE/DX =    0.0                 !
 ! A13   A(4,5,10)             109.9538         -DE/DX =    0.0                 !
 ! A14   A(8,5,9)              108.3867         -DE/DX =    0.0                 !
 ! A15   A(8,5,10)             109.0972         -DE/DX =    0.0                 !
 ! A16   A(9,5,10)             108.4743         -DE/DX =    0.0                 !
 ! A17   A(1,6,2)              122.8775         -DE/DX =    0.0                 !
 ! A18   A(1,6,4)              112.0953         -DE/DX =    0.0                 !
 ! A19   A(2,6,4)              124.9597         -DE/DX =    0.0                 !
 ! D1    D(13,1,6,2)            -0.6277         -DE/DX =    0.0                 !
 ! D2    D(13,1,6,4)           176.5177         -DE/DX =    0.0                 !
 ! D3    D(11,3,4,5)            39.2463         -DE/DX =    0.0                 !
 ! D4    D(11,3,4,6)           159.6662         -DE/DX =    0.0                 !
 ! D5    D(11,3,4,7)           -83.5848         -DE/DX =    0.0                 !
 ! D6    D(12,3,4,5)           -80.6551         -DE/DX =    0.0                 !
 ! D7    D(12,3,4,6)            39.7648         -DE/DX =    0.0                 !
 ! D8    D(12,3,4,7)           156.5138         -DE/DX =    0.0                 !
 ! D9    D(3,4,5,8)           -179.4484         -DE/DX =    0.0                 !
 ! D10   D(3,4,5,9)            -59.5927         -DE/DX =    0.0                 !
 ! D11   D(3,4,5,10)            59.4486         -DE/DX =    0.0                 !
 ! D12   D(6,4,5,8)             59.8778         -DE/DX =    0.0                 !
 ! D13   D(6,4,5,9)            179.7336         -DE/DX =    0.0                 !
 ! D14   D(6,4,5,10)           -61.2252         -DE/DX =    0.0                 !
 ! D15   D(7,4,5,8)            -56.1735         -DE/DX =    0.0                 !
 ! D16   D(7,4,5,9)             63.6823         -DE/DX =    0.0                 !
 ! D17   D(7,4,5,10)          -177.2765         -DE/DX =    0.0                 !
 ! D18   D(3,4,6,1)            157.2539         -DE/DX =    0.0                 !
 ! D19   D(3,4,6,2)            -25.6713         -DE/DX =    0.0                 !
 ! D20   D(5,4,6,1)            -77.9183         -DE/DX =    0.0                 !
 ! D21   D(5,4,6,2)             99.1565         -DE/DX =    0.0                 !
 ! D22   D(7,4,6,1)             39.06           -DE/DX =    0.0                 !
 ! D23   D(7,4,6,2)           -143.8652         -DE/DX =    0.0                 !
 --------------------------------------------------------------------------------
 GradGradGradGradGradGradGradGradGradGradGradGradGradGradGradGradGradGrad

 Leave Link  103 at Tue Feb 13 18:26:57 2024, MaxMem=  6442450944 cpu:               1.1 elap:               0.2
 (Enter /usr/local/g16_bin/l9999.exe)

 ----------------------------------------------------------------------

 Electric dipole moment (input orientation):
 (Debye = 10**-18 statcoulomb cm , SI units = C m)
                  (au)            (Debye)         (10**-30 SI)
   Tot        0.857989D+00      0.218079D+01      0.727433D+01
   x         -0.232492D+00     -0.590937D+00     -0.197115D+01
   y         -0.825652D+00     -0.209860D+01     -0.700017D+01
   z         -0.197467D-01     -0.501912D-01     -0.167420D+00

 Dipole polarizability, Alpha (input orientation).
 (esu units = cm**3 , SI units = C**2 m**2 J**-1)
 Alpha(0;0):
               (au)            (10**-24 esu)      (10**-40 SI)
   iso        0.500078D+02      0.741040D+01      0.824518D+01
   aniso      0.120284D+02      0.178242D+01      0.198321D+01
   xx         0.549768D+02      0.814672D+01      0.906444D+01
   yx         0.344822D-01      0.510973D-02      0.568535D-02
   yy         0.508632D+02      0.753715D+01      0.838621D+01
   zx         0.676993D+00      0.100320D+00      0.111621D+00
   zy        -0.425389D+01     -0.630362D+00     -0.701372D+00
   zz         0.441835D+02      0.654732D+01      0.728488D+01

 ----------------------------------------------------------------------

 Dipole orientation:
     8          3.29391431          0.64450022          0.29392478
     8          1.00681193         -1.68301289         -2.38316803
     7         -3.21372598          1.11054803         -1.38467128
     6         -1.15066662          1.18158236          0.41794337
     6         -1.69023881         -0.13202356          2.94706402
     6          1.11097115         -0.10242746         -0.76406031
     1         -0.62158795          3.14241728          0.78768553
     1         -0.07898710          0.00142893          4.22404195
     1         -3.31185184          0.76190358          3.85109931
     1         -2.13449344         -2.12048571          2.62672020
     1         -4.89320747          1.35608461         -0.50449670
     1         -3.23269764         -0.58561454         -2.27701888
     1          4.63523780         -0.32818100         -0.48216811

 Electric dipole moment (dipole orientation):
 (Debye = 10**-18 statcoulomb cm , SI units = C m)
                  (au)            (Debye)         (10**-30 SI)
   Tot        0.857989D+00      0.218079D+01      0.727433D+01
   x          0.000000D+00      0.000000D+00      0.000000D+00
   y          0.000000D+00      0.000000D+00      0.000000D+00
   z          0.857989D+00      0.218079D+01      0.727433D+01

 Dipole polarizability, Alpha (dipole orientation).
 (esu units = cm**3 , SI units = C**2 m**2 J**-1)
 Alpha(0;0):
               (au)            (10**-24 esu)      (10**-40 SI)
   iso        0.500078D+02      0.741040D+01      0.824518D+01
   aniso      0.120284D+02      0.178242D+01      0.198321D+01
   xx         0.548288D+02      0.812479D+01      0.904005D+01
   yx        -0.116705D+01     -0.172940D+00     -0.192421D+00
   yy         0.441950D+02      0.654902D+01      0.728676D+01
   zx         0.157145D-02      0.232865D-03      0.259098D-03
   zy         0.422584D+01      0.626205D+00      0.696747D+00
   zz         0.509997D+02      0.755738D+01      0.840872D+01

 ----------------------------------------------------------------------
 Unable to Open any file for archive entry.
 1\1\GINC-QTCOVI02\Freq\RM062X\def2TZVP\C3H7N1O2\ALEJANDRO\13-Feb-2024\
 0\\#P Geom=AllCheck Guess=TCheck SCRF=Check GenChk RM062X/def2TZVP Fre
 q\\5950 alanine\\0,1\O,1.4788860014,-0.5971241499,0.7969460224\O,1.072
 1778246,1.0249492109,-0.6836515241\N,-1.5311179601,1.1896682235,0.1215
 658116\C,-0.7899596061,-0.017708816,0.431613248\C,-1.2311550212,-1.265
 6575083,-0.3454920243\C,0.6677438669,0.2293457523,0.1164517368\H,-0.86
 09911915,-0.2266172472,1.5014988972\H,-0.6445572858,-2.1398274582,-0.0
 620435303\H,-2.2806726329,-1.4723212783,-0.13381305\H,-1.1217913597,-1
 .0946471579,-1.417884822\H,-2.5139569072,0.9854380208,-0.0049446473\H,
 -1.1728810581,1.5999603425,-0.7340291431\H,2.3840053297,-0.4181979344,
 0.5034130252\\Version=ES64L-G16RevC.01\State=1-A\HF=-323.7457043\RMSD=
 2.172e-09\RMSF=2.313e-05\ZeroPoint=0.1089506\Thermal=0.1157438\ETot=-3
 23.6299605\HTot=-323.6290163\GTot=-323.6672566\Dipole=-0.2324924,-0.82
 56522,-0.0197467\DipoleDeriv=-0.8856664,0.4089626,-0.4096902,0.3187076
 ,-0.6811553,0.2924555,-0.2613204,0.2597355,-0.5890724,-0.7815559,-0.23
 02477,0.1815328,-0.0284521,-0.7730831,0.3577801,0.0712188,0.4398733,-0
 .7047769,-0.3905907,0.1674944,-0.0277088,0.1184757,-0.7385786,-0.07619
 17,0.0079133,-0.1175387,-0.4059976,0.0374314,-0.2313001,0.0536112,-0.2
 454558,0.4573363,0.0595775,0.0973692,-0.0399526,0.2240704,-0.0097305,-
 0.0265651,-0.003036,0.0836338,-0.0609811,-0.052142,0.0277335,-0.033623
 3,0.0446215,1.4175381,-0.0411833,0.1453463,-0.1716295,1.0470715,-0.717
 7643,0.0872868,-0.7674762,0.8998185,0.0314569,-0.0030095,-0.0125811,0.
 0287911,-0.0032156,0.01618,-0.0163824,0.0434482,-0.0858354,0.0324123,0
 .0886542,-0.028006,0.0594458,-0.0716435,0.002655,-0.0294387,0.0325366,
 0.0502919,-0.1189561,-0.053474,0.0239774,-0.0299691,0.0393819,-0.01136
 92,0.0299632,-0.015623,0.0542747,0.0626982,-0.0165848,0.0285404,-0.014
 6901,0.0363685,0.0607146,-0.0017474,-0.0031861,-0.0904709,0.0743196,-0
 .0414225,-0.0366844,-0.0997618,0.1943115,0.0396379,-0.0860091,0.082979
 3,0.2202743,0.20579,0.0177383,0.0385361,0.0364194,0.259456,-0.0155628,
 0.0064233,0.0716702,0.096528,0.3248531,-0.0390624,0.0461624,-0.0555151
 ,0.2947317,0.0440294,0.0669898,0.0471566,0.286274\Polar=54.9767643,0.0
 344822,50.863209,0.6769932,-4.2538925,44.1835162\Quadrupole=4.8762119,
 -3.3171274,-1.5590845,-0.7292539,1.965432,0.0111435\PG=C01 [X(C3H7N1O2
 )]\NImag=0\\0.64978851,-0.01670447,0.23999254,-0.06207199,-0.18868519,
 0.22819024,0.03571123,0.02417423,-0.02317858,0.19422498,0.01765253,-0.
 04648911,0.07011101,0.16584149,0.42977555,-0.01826447,0.07011625,-0.03
 424955,-0.17507753,-0.39185648,0.42178213,-0.00954946,0.00028289,0.000
 36541,-0.00149937,0.00397875,-0.00377292,0.67926536,-0.00249731,0.0011
 9510,-0.00108413,-0.00247909,0.00187419,0.00032884,0.03404048,0.381146
 22,0.00171691,-0.00057669,0.00166182,0.00153946,-0.00020728,0.00088147
 ,-0.04948852,-0.21463240,0.42826422,-0.02953504,0.00330919,-0.00030830
 ,-0.00985684,-0.01117159,0.01227076,-0.13152202,0.04963579,-0.01616354
 ,0.51921114,0.02573562,0.00668099,0.00236421,-0.02595130,-0.00521897,0
 .02490557,0.07133298,-0.18370771,0.06715482,-0.02184790,0.47832285,-0.
 01924276,0.00528594,0.00751061,0.03101482,0.02492671,0.00072599,0.0080
 6893,0.02620132,-0.08550176,-0.01088635,-0.07387106,0.60113527,-0.0023
 7917,0.00195137,0.00079418,-0.00266639,0.00203786,0.00485386,0.0037229
 2,0.02371343,0.00779194,-0.09107504,-0.03646185,-0.02464361,0.57568326
 ,0.00240581,-0.00249602,0.00045053,0.00215968,0.00279319,-0.00185451,-
 0.00030883,-0.03946977,-0.01316864,-0.01955598,-0.13048036,-0.04072734
 ,-0.03047957,0.50346615,0.00082335,-0.00054070,0.00055122,0.00293185,0
 .00094424,-0.00414731,0.00285300,0.00756135,0.00694371,-0.01735629,-0.
 04253717,-0.10955923,-0.01441359,-0.05556390,0.54772586,-0.20806107,0.
 05815727,-0.03770616,-0.21369337,-0.16516332,0.17237454,-0.02919021,0.
 00612068,-0.00201880,-0.18851257,-0.00764640,0.02375248,-0.01046647,-0
 .01955060,-0.00569022,0.68987788,0.07312067,-0.15030163,0.06983258,-0.
 15235383,-0.38074205,0.30020616,0.03296547,-0.00199639,-0.00354124,-0.
 01425132,-0.07477304,-0.00499794,-0.03229041,-0.01055226,0.00315750,0.
 08743670,0.62254239,-0.05289384,0.07190004,-0.12790061,0.15756737,0.30
 313748,-0.38457522,-0.00606987,0.00084184,-0.00047309,0.02460196,-0.00
 749635,-0.08890363,-0.02120341,-0.00224481,0.00537922,-0.13062633,-0.3
 6461114,0.60007764,-0.00106935,-0.00021550,-0.00211372,-0.00741072,-0.
 00413190,-0.00011341,0.00311465,0.01117373,-0.01883142,-0.05417631,-0.
 00391461,0.02340566,0.00236550,0.00009098,-0.01288433,0.00146003,-0.00
 459005,0.03554343,0.05779521,0.00137795,0.00004878,-0.00055647,-0.0015
 0202,0.00030043,-0.00024832,-0.00084927,-0.01554093,0.02862841,-0.0034
 5909,-0.05033354,0.04285318,0.00220955,0.00244372,-0.02873185,-0.00236
 155,-0.00273620,0.00767323,0.00138977,0.07072124,-0.00130982,-0.000442
 68,0.00150970,0.00132235,-0.00087736,0.00089746,-0.00221162,0.00751866
 ,-0.00166720,0.02469810,0.04525464,-0.30038685,0.00202510,-0.00030427,
 -0.01763938,-0.00025315,0.00292756,-0.00954831,-0.02159801,-0.05142002
 ,0.32533256,-0.00068180,-0.00012033,-0.00019511,-0.00005314,0.00012005
 ,-0.00029162,0.00060285,-0.00259929,-0.00119137,0.00481190,-0.00772598
 ,0.00432496,-0.12778128,0.11882224,-0.03940704,0.00073033,-0.00063339,
 0.00083537,0.00034667,0.00056164,0.00017264,0.13494602,-0.00028796,0.0
 0147133,-0.00017960,-0.00063611,0.00054408,-0.00048994,-0.00083295,-0.
 00662909,-0.00370169,0.01405782,-0.01677574,0.01022092,0.11671807,-0.2
 2003931,0.05661237,0.00237948,-0.00229748,0.00142854,0.00009728,0.0008
 0697,-0.00030118,-0.12839928,0.23928544,0.00007794,-0.00036081,-0.0002
 6915,0.00003133,0.00003995,-0.00002172,-0.00084215,-0.00403239,0.00030
 616,0.01108538,-0.01116069,0.00507639,-0.03975723,0.05821352,-0.068361
 29,0.00003310,0.00038169,0.00056033,0.00043870,0.00074340,0.00014489,0
 .04341528,-0.06178490,0.06806865,-0.00048048,-0.00022077,0.00004107,-0
 .00024706,-0.00035259,0.00051253,0.00209710,0.00064515,-0.00004240,-0.
 01039310,-0.00111028,0.00151734,-0.29855346,-0.04695025,0.05357448,0.0
 0166165,-0.00035581,-0.00210595,0.00038964,0.00002586,-0.00035791,-0.0
 1508572,-0.00377338,0.00368939,0.32204597,-0.00091850,0.00136687,0.000
 10231,-0.00152739,0.00006646,0.00161580,-0.00040555,0.00321623,0.00030
 197,-0.02854969,-0.00953872,0.00349825,-0.04593863,-0.05349492,0.01163
 642,0.00282285,-0.00509467,-0.00390112,0.00101550,0.00121910,0.0005665
 9,0.02500154,0.00606690,-0.00633965,0.05268918,0.05891908,-0.00087795,
 0.00034142,0.00011018,-0.00127895,-0.00030292,0.00201727,-0.00009288,0
 .00191426,-0.00026740,-0.01967454,-0.00577438,0.00196972,0.05446815,0.
 01111310,-0.05742917,0.00173733,-0.00281435,-0.00315119,-0.00002964,0.
 00101986,0.00082847,-0.00861317,-0.00224763,0.00093983,-0.05721454,-0.
 00859548,0.05947117,-0.00026087,-0.00004097,0.00039579,0.00008582,0.00
 006515,0.00069252,-0.00028318,0.00053738,0.00064307,-0.00049172,0.0015
 8661,-0.01159700,-0.05098880,-0.00439215,0.02882441,0.00089438,0.00089
 562,-0.00250730,0.00004605,-0.00204731,-0.00112090,0.00195794,0.001487
 18,-0.01775368,-0.00182953,-0.00490193,0.03097164,0.05074663,-0.000039
 76,-0.00008873,0.00021918,0.00025240,-0.00024031,0.00077765,-0.0001922
 5,0.00327880,0.00124124,0.00159060,0.00246434,-0.02869298,-0.00367856,
 -0.05463803,0.04629060,0.00155493,0.00174931,-0.00159352,-0.00206367,-
 0.00427237,-0.00287428,-0.00472642,-0.00301829,0.02482967,0.00010245,-
 0.00201182,0.00515247,0.00696741,0.05734156,-0.00051811,-0.00014337,0.
 00022491,-0.00076550,-0.00067646,0.00123714,0.00042505,0.00061426,0.00
 301022,-0.00043345,0.00302348,-0.01858578,0.02855056,0.04445349,-0.305
 52850,0.00190066,0.00119647,-0.00162556,-0.00149726,-0.00304457,-0.000
 04843,0.00104218,0.00053668,-0.00592057,0.00002285,0.00076596,-0.00489
 070,-0.02915061,-0.04551275,0.33252376,-0.00114833,0.00010164,0.000239
 08,0.00025367,0.00038506,-0.00025840,-0.41097305,-0.07036684,-0.034485
 11,-0.01827056,-0.00614608,-0.00359074,0.00268871,-0.00235518,0.000698
 85,-0.00010638,0.00211801,-0.00164481,-0.00055930,0.00037253,0.0000034
 8,0.00023778,-0.00084412,-0.00038712,0.00031554,0.00093012,0.00050719,
 -0.00011656,0.00046789,0.00022212,0.43954959,0.00227482,0.00040287,-0.
 00048752,-0.00051882,0.00160236,-0.00041967,-0.10350359,-0.05982755,0.
 01545225,0.03720440,0.00210976,0.00129214,0.00142677,0.00266225,-0.000
 11976,0.00112554,-0.00689247,0.00310258,-0.00029136,0.00016273,0.00038
 982,-0.00038808,0.00034405,0.00020432,-0.00087710,-0.00080847,0.000244
 75,-0.00007019,-0.00010475,-0.00030592,0.07827020,0.06481261,-0.000768
 52,-0.00008386,0.00042604,0.00088003,-0.00112496,0.00068169,-0.0748599
 9,0.01033803,-0.04017401,-0.00642337,-0.00563214,-0.00229529,0.0001870
 2,0.00062774,0.00057485,0.00178931,0.00174771,-0.00183229,-0.00054522,
 0.00049714,-0.00051809,-0.00007895,0.00037606,-0.00012851,0.00018338,0
 .00012735,0.00042282,0.00040724,-0.00004166,-0.00019698,0.04525929,-0.
 01224652,0.03876648,0.00116716,-0.00238871,0.00230475,-0.00095582,-0.0
 0298112,0.00244639,-0.10485722,-0.04715031,0.11054033,0.00859813,0.007
 44729,-0.01955847,-0.00089913,0.00024117,0.00004748,-0.00011401,0.0069
 2441,-0.00649023,-0.00296671,0.00434736,-0.00156093,0.00009687,0.00029
 744,0.00001689,-0.00009953,-0.00016030,0.00002784,0.00032235,-0.000209
 51,0.00023255,-0.01187133,-0.01512716,0.03417618,0.11196339,-0.0006282
 6,0.00020924,-0.00004940,-0.00192697,-0.00066283,-0.00145927,-0.037081
 23,-0.08338744,0.12304886,-0.00881636,-0.01884532,0.02990868,0.0001803
 3,-0.00026527,0.00144573,0.00082769,0.00059752,0.00191410,0.00166750,-
 0.00246710,-0.00066415,0.00013886,0.00007301,-0.00090207,0.00011700,-0
 .00003260,-0.00006275,0.00001099,-0.00052711,-0.00083291,-0.00309073,-
 0.00432598,0.00532458,0.04852707,0.10959354,0.00001609,-0.00006882,0.0
 0018337,0.00147588,-0.00240935,-0.00020144,0.12674463,0.16491503,-0.31
 335828,-0.00059513,-0.00115470,-0.01151838,0.00067099,-0.00109195,0.00
 160268,0.00135067,0.00218970,-0.00083419,-0.00161798,0.00287070,0.0006
 2319,0.00007431,-0.00048146,-0.00044398,0.00011593,0.00007449,-0.00001
 137,0.00031162,0.00023279,-0.00009810,-0.00643661,-0.00746936,0.004225
 18,-0.12211201,-0.15763064,0.31974007,-0.43350134,-0.06828585,0.121433
 58,0.00610702,-0.00628036,0.00462775,-0.00092837,-0.00077382,-0.000010
 56,0.00121203,0.00470190,-0.00256525,0.00034934,-0.00012732,-0.0000019
 4,-0.04448019,0.00101391,0.00499361,0.00066463,-0.00006541,0.00019067,
 -0.00012842,-0.00026346,-0.00004782,0.00017898,-0.00005720,0.00006951,
 -0.00008252,-0.00002550,-0.00003104,0.00000023,0.00047458,-0.00020639,
 -0.00038415,0.00007411,0.00000160,0.47099274,-0.10149113,-0.05199222,0
 .04796247,-0.00553227,-0.00360299,-0.00162208,0.00057310,-0.00015165,0
 .00000039,0.00185412,0.00009547,0.00410217,0.00061165,0.00007064,-0.00
 015482,0.03429675,0.01049698,-0.01015087,-0.00022767,-0.00035284,0.000
 22666,-0.00005156,0.00016813,0.00016796,0.00006054,0.00012657,0.000011
 65,-0.00009780,0.00006740,-0.00007435,0.00015749,-0.00013740,0.0000905
 4,0.00023237,0.00004034,0.00002358,0.06961441,0.04517157,0.15331317,0.
 04325847,-0.07794876,0.00353748,-0.00170458,-0.00502792,-0.00111907,-0
 .00048468,0.00037414,-0.00081523,0.00492377,0.00033295,0.00067604,0.00
 009705,-0.00011266,-0.02664343,-0.00567468,0.01282692,-0.00015681,-0.0
 0028470,0.00047197,-0.00008747,0.00001183,0.00004897,0.00006383,0.0001
 4710,-0.00000965,-0.00011678,-0.00002840,-0.00010142,-0.00012723,0.000
 36288,0.00004811,-0.00007078,-0.00004076,0.00009124,-0.12845372,-0.040
 58330,0.06900611\\0.00000163,-0.00003535,0.00001373,-0.00002567,-0.000
 01577,-0.00000191,0.00000374,0.00005820,0.00002289,-0.00002131,-0.0000
 8226,-0.00002983,0.00001477,0.00003150,0.00001172,0.00003588,0.0000538
 4,0.00000786,-0.00000544,0.00000879,0.,0.00000652,-0.00000220,0.000005
 81,0.00000078,-0.00000264,-0.00000163,-0.00000455,-0.00000219,0.000001
 55,-0.00001062,-0.00000742,-0.00000373,-0.00000015,-0.00000920,-0.0000
 1351,0.00000441,0.00000468,-0.00001296\\\@
 The archive entry for this job was punched.


 Life may have no meaning.  Or even worse, it may have a
 meaning of which I disapprove.
                                 -- Ashleigh Brilliant
 Job cpu time:       0 days  0 hours 31 minutes  2.6 seconds.
 Elapsed time:       0 days  0 hours  2 minutes  2.5 seconds.
 File lengths (MBytes):  RWF=     68 Int=      0 D2E=      0 Chk=      5 Scr=      1
 Normal termination of Gaussian 16 at Tue Feb 13 18:26:57 2024.
